Generated by gmx solvate
 1398
    1SOL     OW    1   1.488   1.438   1.339 -0.1537  0.3226 -0.1351
    1SOL    HW1    2   1.444   1.360   1.373 -1.3823  0.3988 -1.5160
    1SOL    HW2    3   1.502   1.493   1.416 -1.1601 -0.3405  0.5379
    2SOL     OW    4   1.189   2.107   0.688  0.1024  0.4177 -0.1984
    2SOL    HW1    5   1.238   2.070   0.614  1.5535  0.4337  0.7266
    2SOL    HW2    6   1.176   2.198   0.664 -0.5375  0.1340 -0.9824
    3SOL     OW    7   0.543   0.946   0.769 -0.2416 -0.0240 -0.1252
    3SOL    HW1    8   0.638   0.941   0.763 -0.2199 -0.8695  0.8440
    3SOL    HW2    9   0.518   0.873   0.826 -1.5956 -0.8116 -1.6760
    4SOL     OW   10   2.304   1.493   1.934  0.5613 -0.4396 -0.3022
    4SOL    HW1   11   2.227   1.524   1.982 -1.4082 -3.1226 -1.5936
    4SOL    HW2   12   2.378   1.512   1.992 -1.5649 -2.1305  3.1351
    5SOL     OW   13   0.444   1.664   1.456 -0.1373 -0.1010  0.1862
    5SOL    HW1   14   0.457   1.587   1.400  1.8350  0.1727  0.2262
    5SOL    HW2   15   0.458   1.739   1.398  2.2264  0.1844  1.0430
    6SOL     OW   16   1.722   0.029   0.174  0.1746  0.4429 -0.4244
    6SOL    HW1   17   1.755   0.055   0.088  0.3203 -1.1244 -0.8606
    6SOL    HW2   18   1.635  -0.007   0.156  0.8190 -1.3135 -0.1508
    7SOL     OW   19   2.267   0.246   1.089  0.3423  0.1651 -0.2780
    7SOL    HW1   20   2.205   0.254   1.162 -0.1338  1.1330 -0.7772
    7SOL    HW2   21   2.339   0.195   1.125  0.2576  0.9003  0.9786
    8SOL     OW   22   0.456   0.150   1.306 -0.2795 -0.2053  0.4714
    8SOL    HW1   23   0.507   0.230   1.316  1.1364 -0.9817 -0.3885
    8SOL    HW2   24   0.370   0.180   1.275  0.0647  1.0149  0.6818
    9SOL     OW   25   2.137   2.082   0.393 -0.1398 -0.1161  0.0181
    9SOL    HW1   26   2.123   1.997   0.434  1.8619 -2.0381 -3.0957
    9SOL    HW2   27   2.064   2.091   0.332 -0.3755  0.4507  0.3766
   10SOL     OW   28   1.501   1.869   2.139 -0.2678  0.4411 -0.1790
   10SOL    HW1   29   1.548   1.867   2.222 -0.2870 -0.0408 -0.1779
   10SOL    HW2   30   1.538   1.797   2.089 -1.1836 -0.1028 -0.0752
   11SOL     OW   31   2.108   1.460   0.181  0.6060  0.1295 -0.5002
   11SOL    HW1   32   2.195   1.497   0.167  0.6459 -0.2594 -1.2920
   11SOL    HW2   33   2.117   1.368   0.156  0.3482 -0.2668  0.8352
   12SOL     OW   34   1.363   1.236   0.014 -0.4038 -0.2279 -0.4767
   12SOL    HW1   35   1.380   1.208  -0.076  0.3327 -1.4683  0.0247
   12SOL    HW2   36   1.429   1.303   0.031  1.3900 -2.0773  0.0835
   13SOL     OW   37   0.310   0.117   1.642 -0.3181  0.0279  0.1760
   13SOL    HW1   38   0.361   0.038   1.622  1.7367  1.0220  1.3489
   13SOL    HW2   39   0.293   0.111   1.736  0.9215  1.6006  0.5067
   14SOL     OW   40   0.640   1.308   0.848  0.6940 -0.2724 -0.0388
   14SOL    HW1   41   0.702   1.261   0.902  1.2579  0.9985  0.4408
   14SOL    HW2   42   0.554   1.282   0.881  1.0242  0.0211  1.0662
   15SOL     OW   43   0.714   0.547   1.923  0.4796  0.3032  0.2019
   15SOL    HW1   44   0.646   0.612   1.904 -0.8183 -1.2665 -0.6675
   15SOL    HW2   45   0.749   0.523   1.837 -1.5265 -2.7238  0.1469
   16SOL     OW   46   0.410   2.243   0.233 -0.1634 -0.1057 -0.1768
   16SOL    HW1   47   0.495   2.272   0.267  0.2083 -1.2413 -0.1317
   16SOL    HW2   48   0.373   2.322   0.192  0.1781  0.8166  1.2575
   17SOL     OW   49   1.716   0.680   1.471  0.3123 -0.3535 -0.0942
   17SOL    HW1   50   1.761   0.635   1.542 -0.2262 -0.6890  0.0354
   17SOL    HW2   51   1.779   0.679   1.398 -0.3228 -2.8397 -0.6496
   18SOL     OW   52   1.684   1.323   0.640 -0.0849  0.2746 -0.0259
   18SOL    HW1   53   1.644   1.399   0.682 -1.5344 -1.2182  1.3632
   18SOL    HW2   54   1.624   1.251   0.659  2.4885 -1.7281  0.7688
   19SOL     OW   55   1.458   0.366   0.947  0.2915 -0.3136 -0.2087
   19SOL    HW1   56   1.422   0.282   0.976 -0.2076 -0.0943 -0.1858
   19SOL    HW2   57   1.396   0.431   0.979  0.0101 -0.0260 -1.2939
   20SOL     OW   58   0.731   0.018   0.507 -0.3050  0.5177 -0.3759
   20SOL    HW1   59   0.694  -0.047   0.447 -0.0795 -0.7748  0.8672
   20SOL    HW2   60   0.703  -0.010   0.594  0.6005  1.5482  0.2634
   21SOL     OW   61   0.704   0.120   1.746  0.0383  0.0413  0.1548
   21SOL    HW1   62   0.721   0.034   1.707  0.0437 -0.2041  0.6892
   21SOL    HW2   63   0.635   0.158   1.692 -2.6206 -1.8490  2.1352
   22SOL     OW   64   0.491   1.927   0.633 -0.2029 -0.1596 -0.2440
   22SOL    HW1   65   0.500   1.923   0.538  0.9748 -1.5489 -0.0817
   22SOL    HW2   66   0.494   1.836   0.661  0.4497  0.3032  1.2227
   23SOL     OW   67   0.683   2.381   0.768 -0.0301  0.1509 -0.6573
   23SOL    HW1   68   0.678   2.436   0.847 -0.3823 -0.0339 -0.5525
   23SOL    HW2   69   0.637   2.301   0.791  1.9008 -0.8763 -0.2474
   24SOL     OW   70   0.158   1.965   0.668 -0.1153 -0.4532  0.1040
   24SOL    HW1   71   0.183   2.020   0.594  0.4475 -0.0844  0.5552
   24SOL    HW2   72   0.063   1.963   0.666 -0.0655 -2.5321 -2.1360
   25SOL     OW   73   1.675   0.454   2.345  0.1326 -0.2303  0.4334
   25SOL    HW1   74   1.711   0.472   2.432 -0.3097 -0.2825  0.6307
   25SOL    HW2   75   1.606   0.520   2.334 -1.1351 -1.4258  0.9344
   26SOL     OW   76   1.080   1.496   1.581  0.0505 -0.2394  0.3936
   26SOL    HW1   77   1.074   1.581   1.625 -1.8313  0.3498 -0.9478
   26SOL    HW2   78   0.989   1.470   1.566  0.6457 -0.5042 -2.9585
   27SOL     OW   79   0.540   0.440   1.081 -0.0188  0.3862  0.8538
   27SOL    HW1   80   0.577   0.423   0.994 -0.1384 -1.3618  1.1329
   27SOL    HW2   81   0.474   0.508   1.066 -0.7245 -0.5986 -0.5864
   28SOL     OW   82   0.450   0.608   0.583  0.0903  0.0048 -0.3531
   28SOL    HW1   83   0.536   0.589   0.545  1.1996 -1.1122  2.6253
   28SOL    HW2   84   0.393   0.539   0.548  0.8963 -0.5221 -0.6415
   29SOL     OW   85   1.154   1.661   1.387 -0.0172  0.5804 -0.6541
   29SOL    HW1   86   1.132   1.585   1.442 -1.4596  2.2735  1.1664
   29SOL    HW2   87   1.164   1.733   1.448  2.2723  1.7295 -2.2786
   30SOL     OW   88   1.248   0.462   2.267 -0.5397 -0.1640  0.2298
   30SOL    HW1   89   1.242   0.515   2.188  1.2648 -0.5477 -0.1700
   30SOL    HW2   90   1.320   0.500   2.317 -0.4908 -1.0444  0.8400
   31SOL     OW   91   1.622   2.241   0.742 -0.3845  0.4744 -0.1011
   31SOL    HW1   92   1.669   2.282   0.814 -1.2344 -2.7272  2.4196
   31SOL    HW2   93   1.658   2.152   0.737 -3.3279 -0.7529 -0.6863
   32SOL     OW   94   1.373   0.626   1.333  0.5905 -0.5329  0.1399
   32SOL    HW1   95   1.428   0.575   1.274 -0.3509 -1.5382  0.1190
   32SOL    HW2   96   1.429   0.699   1.360  2.0234 -1.6679  0.3244
   33SOL     OW   97   0.456   1.892   1.292  0.3822  0.2465 -0.6758
   33SOL    HW1   98   0.487   1.967   1.342  1.0114  0.0217 -0.7258
   33SOL    HW2   99   0.378   1.924   1.246  0.7825  0.9380 -0.8785
   34SOL     OW  100   0.262   0.070   2.254 -0.0533  0.2815  0.1847
   34SOL    HW1  101   0.244   0.148   2.203 -2.7235 -1.2042 -1.2342
   34SOL    HW2  102   0.313   0.102   2.329 -1.6584  3.4735  0.0079
   35SOL     OW  103   0.493   2.058   1.004  0.3928  0.0792  0.1243
   35SOL    HW1  104   0.558   1.995   0.973  0.6733 -0.0532  0.9491
   35SOL    HW2  105   0.480   2.035   1.096  2.0731  2.5145  1.0116
   36SOL     OW  106   1.451   1.825   0.610  0.2128 -0.5803 -0.3187
   36SOL    HW1  107   1.362   1.811   0.579  0.1762  0.1866 -0.5809
   36SOL    HW2  108   1.473   1.914   0.581  0.9434 -0.6425  0.0209
   37SOL     OW  109   1.981   2.321   1.017 -0.2201  0.6888  0.2554
   37SOL    HW1  110   2.029   2.319   0.934 -0.5495  0.0408  0.0809
   37SOL    HW2  111   2.050   2.313   1.084 -0.1855 -2.1473 -0.0301
   38SOL     OW  112   1.488   2.035   0.929  0.0173  0.2798  0.1530
   38SOL    HW1  113   1.541   2.022   0.850  0.6896 -1.8023  0.8993
   38SOL    HW2  114   1.444   1.951   0.942  0.5523  0.3135  2.4272
   39SOL     OW  115   1.229   0.187   0.355 -0.9100  0.4309 -0.8707
   39SOL    HW1  116   1.197   0.264   0.401  0.6653  0.1623  0.7397
   39SOL    HW2  117   1.280   0.222   0.282  0.9630  0.9858  0.6485
   40SOL     OW  118   2.354   2.146   0.769  0.3608  0.1684  0.4415
   40SOL    HW1  119   2.395   2.130   0.854  0.7217  1.3448  0.4938
   40SOL    HW2  120   2.414   2.205   0.723 -1.2052  1.8632  0.4899
   41SOL     OW  121   0.685   2.266   0.245  0.0541 -0.2991 -0.3032
   41SOL    HW1  122   0.741   2.233   0.315  0.9037 -1.2020 -1.3736
   41SOL    HW2  123   0.703   2.207   0.171 -0.7475  0.6840 -1.2959
   42SOL     OW  124   0.221   1.392   2.194 -0.0880 -0.3388 -0.0240
   42SOL    HW1  125   0.273   1.472   2.190  0.0910 -0.4854 -0.5577
   42SOL    HW2  126   0.141   1.418   2.240 -0.0598  0.1613 -0.2542
   43SOL     OW  127   2.210   1.106   0.470 -0.3683  0.1828  0.6555
   43SOL    HW1  128   2.147   1.090   0.540  1.4880  0.4813  2.4566
   43SOL    HW2  129   2.275   1.165   0.509  1.2182 -0.4070 -0.9991
   44SOL     OW  130   0.073   1.736   0.018 -0.3538  0.2894  0.0663
   44SOL    HW1  131   0.085   1.751  -0.076  1.6204  0.8085  0.3828
   44SOL    HW2  132   0.143   1.677   0.042 -1.7678 -1.0668  0.9458
   45SOL     OW  133   0.995   0.827   1.756  0.5008 -0.5250 -0.2210
   45SOL    HW1  134   0.972   0.771   1.830  1.2914 -1.1819 -0.4778
   45SOL    HW2  135   1.028   0.768   1.689  0.5826  0.1586 -0.7970
   46SOL     OW  136   1.682   1.958   0.755  0.0241 -0.3612  0.2090
   46SOL    HW1  137   1.750   1.972   0.689 -0.5813 -0.3164 -0.4138
   46SOL    HW2  138   1.677   1.864   0.767  0.2537 -0.3588  0.3159
   47SOL     OW  139   2.049   1.819   0.516 -0.3629 -0.2032 -0.0826
   47SOL    HW1  140   2.034   1.729   0.490 -3.2304  0.2557 -0.2036
   47SOL    HW2  141   2.124   1.815   0.575  0.9090 -2.3431 -1.7886
   48SOL     OW  142   1.807   1.769   2.377 -0.4887  0.1007 -0.5965
   48SOL    HW1  143   1.760   1.847   2.348  0.1408  0.7244  0.0452
   48SOL    HW2  144   1.748   1.726   2.439 -1.0188 -0.1788 -1.2904
   49SOL     OW  145   0.382   1.089   0.906 -0.6267  0.1907 -0.0029
   49SOL    HW1  146   0.441   1.040   0.849 -1.0999  0.9421 -1.1495
   49SOL    HW2  147   0.312   1.027   0.927 -1.2568  0.3672 -1.5059
   50SOL     OW  148   1.072   1.157   0.872 -0.5129 -0.1164  0.1256
   50SOL    HW1  149   1.064   1.248   0.900 -0.9966  0.5209 -2.0080
   50SOL    HW2  150   1.046   1.157   0.780  0.1530 -2.2955 -0.1051
   51SOL     OW  151   2.029   2.144   0.038 -0.6442 -0.7972  0.6790
   51SOL    HW1  152   1.985   2.174   0.118  1.2765 -3.1361  2.6734
   51SOL    HW2  153   1.962   2.094  -0.008 -1.6508  0.2303  0.9937
   52SOL     OW  154   0.458   1.104   0.517 -0.1417  0.0271 -0.0741
   52SOL    HW1  155   0.468   1.065   0.604  0.9761  0.7712  0.1492
   52SOL    HW2  156   0.509   1.048   0.459 -0.5048 -0.2024 -0.1745
   53SOL     OW  157   0.561   1.681   2.204  0.4366  0.5516  0.0762
   53SOL    HW1  158   0.490   1.716   2.150 -1.7289 -2.2957  1.0207
   53SOL    HW2  159   0.617   1.635   2.142 -0.1962  0.1916 -0.2317
   54SOL     OW  160   0.771   1.358   0.382 -0.1329  0.1525  0.5174
   54SOL    HW1  161   0.829   1.320   0.316  1.8248  3.6320  0.1070
   54SOL    HW2  162   0.684   1.354   0.342  0.4595 -1.1924 -0.6892
   55SOL     OW  163   1.404   1.413   1.853  0.2428 -0.2060  0.0569
   55SOL    HW1  164   1.379   1.505   1.838  0.8395 -0.1218 -0.4354
   55SOL    HW2  165   1.373   1.367   1.775 -0.3060 -0.4788  0.4292
   56SOL     OW  166   0.832   0.616   1.411 -0.4614 -0.2994 -0.3039
   56SOL    HW1  167   0.766   0.682   1.391  0.4065  0.8288  0.5025
   56SOL    HW2  168   0.901   0.631   1.348 -0.7809 -1.2268 -0.8908
   57SOL     OW  169   0.309   0.562   1.105 -0.4549 -0.6398 -0.1438
   57SOL    HW1  170   0.227   0.523   1.075 -0.8671 -0.8705  1.2236
   57SOL    HW2  171   0.304   0.558   1.200  0.0572  1.5617  0.0241
   58SOL     OW  172   0.202   1.076   2.271 -0.8911 -0.5871  0.3565
   58SOL    HW1  173   0.167   1.042   2.189  1.0014 -3.5785  0.7090
   58SOL    HW2  174   0.202   1.171   2.259 -3.2220 -0.8150 -2.0028
   59SOL     OW  175   1.566   0.525   0.744 -0.1248 -0.5774 -0.6125
   59SOL    HW1  176   1.520   0.477   0.675 -1.4020 -1.3748  0.7566
   59SOL    HW2  177   1.541   0.481   0.825  1.0290  0.5887  0.4098
   60SOL     OW  178   2.344   0.981   2.410  0.1727  0.2943  0.7094
   60SOL    HW1  179   2.385   1.067   2.403  3.4176 -1.2608 -0.1562
   60SOL    HW2  180   2.260   0.991   2.366  1.5092  2.4272 -1.4493
   61SOL     OW  181   1.177   1.073   2.228 -0.4256  0.6290  0.4654
   61SOL    HW1  182   1.202   1.066   2.136  0.9551  2.3028  0.6764
   61SOL    HW2  183   1.096   1.124   2.227  0.5064  2.1360  0.2658
   62SOL     OW  184   0.836   2.312   1.643  0.0145 -0.4108  0.3362
   62SOL    HW1  185   0.844   2.217   1.645  1.0129 -0.3921 -1.1503
   62SOL    HW2  186   0.914   2.344   1.689 -0.0918 -0.3100  0.4475
   63SOL     OW  187   1.783   0.179   2.351 -0.1043  0.3293 -0.2596
   63SOL    HW1  188   1.780   0.274   2.340  0.7103  0.2297 -1.4375
   63SOL    HW2  189   1.762   0.144   2.265 -0.1291 -0.5654  0.1002
   64SOL     OW  190   0.453   2.184   0.755 -0.0613  0.0673 -0.0726
   64SOL    HW1  191   0.448   2.112   0.692  0.4324  0.0380 -0.0796
   64SOL    HW2  192   0.449   2.142   0.841 -0.9427  0.1224 -0.0799
   65SOL     OW  193   1.045   1.765   1.655 -0.2634 -0.3347  0.5879
   65SOL    HW1  194   1.015   1.827   1.721  0.4066  2.1569 -1.3212
   65SOL    HW2  195   0.992   1.785   1.578  0.7034 -1.3938 -0.3815
   66SOL     OW  196   0.955   2.412   0.804 -0.2628 -0.6823 -0.0638
   66SOL    HW1  197   0.962   2.387   0.896 -1.9222  2.3847  0.9643
   66SOL    HW2  198   0.869   2.379   0.776  1.1679 -3.6171 -1.2538
   67SOL     OW  199   1.051   1.432   0.959  0.1029 -0.1726 -0.2388
   67SOL    HW1  200   1.087   1.494   1.022 -1.0333 -1.4138  1.6738
   67SOL    HW2  201   0.990   1.484   0.906 -0.8540  0.3533  1.3507
   68SOL     OW  202   1.173   1.571   0.387  0.0864  0.0293 -0.1256
   68SOL    HW1  203   1.086   1.608   0.403  0.1156  0.7345 -1.5150
   68SOL    HW2  204   1.188   1.513   0.461 -0.0310  2.6529  2.0060
   69SOL     OW  205   1.636   0.784   0.692 -0.4926 -0.2487 -0.3514
   69SOL    HW1  206   1.588   0.704   0.714 -0.4336 -0.3719 -0.6717
   69SOL    HW2  207   1.674   0.766   0.606  0.5363 -0.3336  0.1123
   70SOL     OW  208   1.050   0.729   0.846 -0.1343  0.7341 -0.1845
   70SOL    HW1  209   1.117   0.727   0.778 -1.2872  1.1603 -1.3552
   70SOL    HW2  210   1.058   0.644   0.890 -2.2729 -1.4484 -3.7597
   71SOL     OW  211   1.794   0.580   1.016  0.2711 -0.4152 -0.2261
   71SOL    HW1  212   1.864   0.547   0.960 -1.8170 -1.5351 -2.2641
   71SOL    HW2  213   1.767   0.663   0.976 -0.0099 -0.3090  0.1727
   72SOL     OW  214   0.902   2.314   1.311 -0.5017 -0.3317  0.2486
   72SOL    HW1  215   0.815   2.301   1.351 -1.0685  0.3069 -0.7456
   72SOL    HW2  216   0.929   2.401   1.341  0.9561 -1.5644  2.6414
   73SOL     OW  217   0.980   1.831   1.184  0.1642  0.1526 -0.1474
   73SOL    HW1  218   0.908   1.768   1.195  0.0128  0.1588 -1.0717
   73SOL    HW2  219   1.025   1.831   1.269  2.4834 -4.0718 -1.2401
   74SOL     OW  220   0.211   1.490   1.385 -0.3352  0.7131  0.3205
   74SOL    HW1  221   0.230   1.564   1.442 -1.4050  0.2008  1.3658
   74SOL    HW2  222   0.132   1.451   1.422 -0.8967  0.2171 -1.3691
   75SOL     OW  223   1.389   2.103   0.452  0.5876 -0.1523  0.0531
   75SOL    HW1  224   1.429   2.074   0.370 -1.6349  0.4337 -1.2859
   75SOL    HW2  225   1.370   2.196   0.438  0.9164  0.1501  1.5362
   76SOL     OW  226   0.694   0.531   0.479  0.1702  0.0835  0.2895
   76SOL    HW1  227   0.693   0.438   0.454 -0.3308 -0.4983  2.3372
   76SOL    HW2  228   0.782   0.545   0.515  0.2334  0.3922  0.0123
   77SOL     OW  229   1.076   0.541   1.661  0.3671 -0.0967 -0.1019
   77SOL    HW1  230   0.983   0.545   1.640  0.6704  2.4702 -1.1187
   77SOL    HW2  231   1.110   0.474   1.602 -1.0308 -2.0039  1.1942
   78SOL     OW  232   0.834   1.780   1.473 -0.2766  0.6072  0.0483
   78SOL    HW1  233   0.823   1.739   1.387 -1.1761  0.0333  0.4257
   78SOL    HW2  234   0.782   1.726   1.532  0.7046  0.7310  1.0397
   79SOL     OW  235   0.978   1.214   0.602  0.0330  0.0750  0.4658
   79SOL    HW1  236   1.037   1.172   0.539 -0.7686  0.1278 -0.3210
   79SOL    HW2  237   0.896   1.226   0.555 -0.3210  0.8652  1.2619
   80SOL     OW  238   0.085   0.983   2.049  0.3416 -0.1857 -0.2857
   80SOL    HW1  239  -0.006   1.012   2.051  0.1989 -0.6859  1.4340
   80SOL    HW2  240   0.128   1.044   1.990 -0.9293  0.5898 -0.4372
   81SOL     OW  241   1.575   0.551   1.151  0.1266  0.0754 -0.3405
   81SOL    HW1  242   1.656   0.548   1.101  0.0240 -1.9845 -0.4447
   81SOL    HW2  243   1.512   0.593   1.092  0.8211  0.6066 -0.7032
   82SOL     OW  244   1.839   1.018   1.365 -0.2209 -0.6568  0.4120
   82SOL    HW1  245   1.906   0.952   1.387  0.7984  0.2235 -0.0342
   82SOL    HW2  246   1.774   0.970   1.314  1.1799 -1.0408 -1.0500
   83SOL     OW  247   0.477   1.053   2.231 -0.0051 -0.1650  0.3179
   83SOL    HW1  248   0.384   1.053   2.249 -0.1105  1.7624 -0.0525
   83SOL    HW2  249   0.503   0.961   2.232 -1.6608 -0.6242  1.6300
   84SOL     OW  250   1.244   0.055   1.320  0.4696 -0.1334 -0.1703
   84SOL    HW1  251   1.156   0.088   1.334  0.2936 -0.3015 -0.8661
   84SOL    HW2  252   1.298   0.102   1.384 -0.2536 -0.6189  0.8068
   85SOL     OW  253   0.566   1.425   1.386  0.2207  0.6625 -0.2585
   85SOL    HW1  254   0.635   1.419   1.320  0.7703  0.4044  0.3334
   85SOL    HW2  255   0.550   1.335   1.413 -0.4956  0.6989 -0.5337
   86SOL     OW  256   1.624   2.322   0.481 -0.5535  0.6760 -0.1225
   86SOL    HW1  257   1.632   2.284   0.568  0.7891 -0.2748 -0.6371
   86SOL    HW2  258   1.658   2.412   0.491  0.9153  0.1240  0.0551
   87SOL     OW  259   2.261   1.837   2.075 -0.0122  0.6913  0.0764
   87SOL    HW1  260   2.348   1.816   2.110  0.1959  1.9909  0.3699
   87SOL    HW2  261   2.214   1.873   2.150 -1.0049 -0.5331  0.0565
   88SOL     OW  262   0.794   2.149   0.018 -0.4299 -0.5068  0.5242
   88SOL    HW1  263   0.883   2.169   0.046 -0.1303  0.3613 -1.0326
   88SOL    HW2  264   0.800   2.063  -0.024 -0.0764  0.1519 -0.7805
   89SOL     OW  265   0.067   0.758   0.223 -0.8462  0.4683  0.7237
   89SOL    HW1  266   0.123   0.692   0.264 -2.0743 -0.2158  1.3145
   89SOL    HW2  267   0.068   0.831   0.285  0.4894  1.0069  0.0842
   90SOL     OW  268   2.028   0.377   0.712 -0.3802 -0.0673 -0.1906
   90SOL    HW1  269   2.044   0.350   0.622  1.0322  1.3305 -0.3890
   90SOL    HW2  270   2.077   0.314   0.765 -0.1166 -0.0951 -0.4636
   91SOL     OW  271   2.253   1.904   2.351 -0.0143  0.4258  0.0852
   91SOL    HW1  272   2.195   1.870   2.418  0.2028 -0.9338 -0.3912
   91SOL    HW2  273   2.341   1.885   2.384  0.1797  2.6137  0.8794
   92SOL     OW  274   0.155   1.997   1.820  0.6575 -0.0423  0.5449
   92SOL    HW1  275   0.103   2.026   1.745  0.5294 -1.1807  0.1877
   92SOL    HW2  276   0.146   2.068   1.884 -1.8787 -0.5028  0.7502
   93SOL     OW  277   2.314   1.500   1.216 -0.1286 -0.3315  0.5039
   93SOL    HW1  278   2.232   1.482   1.262 -2.1551  0.8095 -2.5396
   93SOL    HW2  279   2.337   1.416   1.174 -2.1889  0.4363 -2.2991
   94SOL     OW  280   0.558   0.712   1.382 -0.4542 -0.0784 -0.0090
   94SOL    HW1  281   0.584   0.793   1.337 -0.0296  0.0662  0.4879
   94SOL    HW2  282   0.474   0.733   1.422 -0.0992  0.2902  0.5552
   95SOL     OW  283   2.244   2.283   2.350 -0.2284  0.1056  0.2418
   95SOL    HW1  284   2.173   2.221   2.367 -1.4149  1.8197  1.7220
   95SOL    HW2  285   2.300   2.278   2.428 -0.1708  0.6917  0.2396
   96SOL     OW  286   1.531   0.951   1.558 -0.0396 -0.3210 -0.1734
   96SOL    HW1  287   1.517   0.905   1.476 -2.4047  0.3451 -0.1620
   96SOL    HW2  288   1.535   1.044   1.534 -0.4540 -0.1415  0.4270
   97SOL     OW  289   1.641   1.103   1.026 -0.2807 -0.1315  0.1934
   97SOL    HW1  290   1.684   1.165   1.085 -1.1194  0.7614 -0.1249
   97SOL    HW2  291   1.598   1.157   0.961 -3.9663 -0.8630  1.8873
   98SOL     OW  292   2.415   1.250   0.556 -0.2779 -0.1362 -0.1837
   98SOL    HW1  293   2.375   1.289   0.634  0.3965 -1.8565  1.0560
   98SOL    HW2  294   2.495   1.210   0.588  0.0152 -0.8641 -1.7865
   99SOL     OW  295   0.882   1.902   0.535 -0.0586 -0.1455  0.3331
   99SOL    HW1  296   0.880   1.860   0.621  2.3496 -1.2086 -0.1155
   99SOL    HW2  297   0.808   1.863   0.488 -0.2339 -0.9518  1.2622
  100SOL     OW  298   2.284   2.397   0.348 -0.3399 -0.1088  0.2287
  100SOL    HW1  299   2.221   2.325   0.352  0.9212 -1.2323  0.4417
  100SOL    HW2  300   2.265   2.451   0.424 -1.4036 -0.1157 -0.0230
  101SOL     OW  301   1.625   0.834   1.279 -0.3222 -0.3755  0.1449
  101SOL    HW1  302   1.660   0.766   1.336 -1.8348  0.8414  2.6554
  101SOL    HW2  303   1.635   0.799   1.191  1.7016 -2.5260  1.1545
  102SOL     OW  304   0.012   0.972   1.531 -0.5385 -0.1110  0.3460
  102SOL    HW1  305   0.078   0.989   1.464 -0.8382 -1.8146 -0.3944
  102SOL    HW2  306  -0.047   0.908   1.492 -0.1227 -1.9510  2.6190
  103SOL     OW  307   0.665   0.471   2.173 -0.1601 -0.0982  0.0156
  103SOL    HW1  308   0.612   0.393   2.154 -0.4557  0.1654 -0.2430
  103SOL    HW2  309   0.697   0.500   2.087 -1.9129  1.3919 -0.1678
  104SOL     OW  310   1.967   0.241   1.744 -0.2885 -0.2517 -0.5590
  104SOL    HW1  311   1.962   0.178   1.816  0.5192 -0.3693 -0.6108
  104SOL    HW2  312   1.904   0.208   1.680  0.1505 -1.0223 -0.5965
  105SOL     OW  313   1.479   0.446   1.887  0.2720  0.1176  0.2655
  105SOL    HW1  314   1.458   0.422   1.797  1.0220  1.0334 -0.1597
  105SOL    HW2  315   1.397   0.432   1.935 -0.0213 -0.7425 -0.4744
  106SOL     OW  316   0.464   0.809   2.032  0.0346 -0.4507 -0.2054
  106SOL    HW1  317   0.398   0.875   2.055  0.0341 -0.1616 -1.0345
  106SOL    HW2  318   0.497   0.837   1.947  1.4849 -0.4017  0.3668
  107SOL     OW  319   1.898   2.113   1.697 -1.0973  0.8233 -0.1921
  107SOL    HW1  320   1.822   2.100   1.641 -0.6725 -1.0834 -0.3423
  107SOL    HW2  321   1.867   2.089   1.785 -0.9063  0.8921 -0.1060
  108SOL     OW  322   0.624   2.346   2.284  0.2542  0.1007  0.3055
  108SOL    HW1  323   0.686   2.284   2.244  1.1341 -0.6352  2.7576
  108SOL    HW2  324   0.676   2.397   2.345 -1.1155  1.0757  0.6911
  109SOL     OW  325   1.659   0.205   1.869 -0.2132  0.1303  0.4920
  109SOL    HW1  326   1.589   0.270   1.869  1.0899  1.5580  1.4803
  109SOL    HW2  327   1.674   0.186   1.776 -0.4479  1.4199  0.1806
  110SOL     OW  328   1.637   0.662   1.866  0.2862  0.2103 -0.6753
  110SOL    HW1  329   1.713   0.628   1.817  0.3668 -0.4449 -0.0936
  110SOL    HW2  330   1.583   0.585   1.884 -0.4000  0.6420 -0.8697
  111SOL     OW  331   2.206   2.165   1.463 -0.0014 -0.7418 -0.0409
  111SOL    HW1  332   2.183   2.257   1.478  0.6997 -0.6262  0.3646
  111SOL    HW2  333   2.252   2.138   1.543 -0.1489 -1.4269 -0.1822
  112SOL     OW  334   1.954   0.923   1.623  0.3994  0.0300  0.2871
  112SOL    HW1  335   1.864   0.925   1.657  0.2451  0.9475 -0.1568
  112SOL    HW2  336   1.981   1.015   1.624  1.7588 -0.3735  1.5281
  113SOL     OW  337   1.303   0.272   1.708  0.3560 -0.2560 -0.2592
  113SOL    HW1  338   1.238   0.290   1.776  0.3868 -0.3500 -0.2039
  113SOL    HW2  339   1.282   0.333   1.637  0.8843  0.4770  0.2047
  114SOL     OW  340   1.166   2.168   1.636 -0.1712  0.0912  0.0887
  114SOL    HW1  341   1.155   2.185   1.543 -0.4084 -1.0102 -0.0960
  114SOL    HW2  342   1.252   2.126   1.643 -0.0674  0.3494  0.3905
  115SOL     OW  343   0.258   0.752   0.749  0.2991 -1.0934 -0.3153
  115SOL    HW1  344   0.303   0.761   0.833 -0.4506  1.0974 -0.1293
  115SOL    HW2  345   0.323   0.714   0.691  1.2696 -1.2984  0.8789
  116SOL     OW  346   0.395   0.488   2.384  0.1173 -0.1678  0.1149
  116SOL    HW1  347   0.466   0.424   2.392 -0.3982 -0.6214  1.2467
  116SOL    HW2  348   0.373   0.489   2.291  0.1516 -1.6071  0.0926
  117SOL     OW  349   1.692   1.659   0.191  0.0295 -0.0924  0.2377
  117SOL    HW1  350   1.657   1.572   0.210  1.9005 -0.6177  1.4479
  117SOL    HW2  351   1.743   1.682   0.269  0.9317  1.3688 -0.7546
  118SOL     OW  352   2.136   0.445   1.975  0.2697 -0.3671  0.7020
  118SOL    HW1  353   2.224   0.426   1.945 -0.6929 -0.0352 -2.5699
  118SOL    HW2  354   2.094   0.359   1.984  0.1295 -0.4386 -0.4739
  119SOL     OW  355   1.447   2.337   1.994 -0.0300 -0.0674 -0.3760
  119SOL    HW1  356   1.397   2.258   2.012 -0.9941  0.6692  0.2154
  119SOL    HW2  357   1.404   2.376   1.918  0.8400 -0.4387 -1.0680
  120SOL     OW  358   1.682   2.031   2.332  0.2678  0.0201  0.3158
  120SOL    HW1  359   1.680   2.112   2.282  1.7320 -0.4484 -0.5337
  120SOL    HW2  360   1.608   2.038   2.392  0.7700  2.2531  0.7052
  121SOL     OW  361   2.122   0.038   1.494 -0.0165  0.1592  0.5045
  121SOL    HW1  362   2.130   0.112   1.555 -0.7622  0.6744 -0.0089
  121SOL    HW2  363   2.089   0.078   1.413 -1.3769 -0.8892  0.5262
  122SOL     OW  364   2.409   0.713   1.069 -0.0876  0.5083 -0.3117
  122SOL    HW1  365   2.381   0.648   1.134 -0.8239 -0.3196 -1.4304
  122SOL    HW2  366   2.345   0.705   0.999  3.1615 -1.7225 -3.1548
  123SOL     OW  367   1.344   0.680   1.729 -0.2501 -0.1651 -0.0251
  123SOL    HW1  368   1.344   0.643   1.817 -0.7588 -0.4048 -0.1258
  123SOL    HW2  369   1.254   0.673   1.700 -0.5799  2.1911  0.3695
  124SOL     OW  370   0.378   2.266   1.777 -0.0592 -0.0095 -0.2473
  124SOL    HW1  371   0.466   2.249   1.812  0.7865  2.3480 -1.0751
  124SOL    HW2  372   0.321   2.263   1.853  0.5529 -2.5871  0.1635
  125SOL     OW  373   1.775   1.238   1.517  0.1910 -0.2315 -0.2622
  125SOL    HW1  374   1.814   1.161   1.475  0.7738  0.5254 -1.1345
  125SOL    HW2  375   1.812   1.238   1.606  0.5130 -0.7206 -0.3957
  126SOL     OW  376   0.716   1.371   1.943  0.2613 -0.3133 -0.0665
  126SOL    HW1  377   0.752   1.429   2.011  1.0101  0.4633 -1.1218
  126SOL    HW2  378   0.793   1.326   1.907 -0.1326 -0.6933 -0.4311
  127SOL     OW  379   2.047   0.314   1.268  0.2805  0.2496  0.1181
  127SOL    HW1  380   1.963   0.358   1.253 -1.2456 -2.5887  0.0105
  127SOL    HW2  381   2.060   0.318   1.363 -0.8247 -0.7328  0.3256
  128SOL     OW  382   1.438   0.161   1.495  0.0199 -0.5736  0.6295
  128SOL    HW1  383   1.419   0.190   1.584  0.7886 -1.0203  0.9517
  128SOL    HW2  384   1.534   0.150   1.494  0.0303 -0.4103 -0.2964
  129SOL     OW  385   2.107   0.731   1.733  0.1378  0.6827 -0.2806
  129SOL    HW1  386   2.062   0.810   1.703  1.1416  1.1803 -0.4975
  129SOL    HW2  387   2.103   0.736   1.829 -0.7440  0.4418 -0.3012
  130SOL     OW  388   0.810   1.536   0.795 -0.3270  0.1372  0.1578
  130SOL    HW1  389   0.825   1.545   0.700  0.4222 -0.5504  0.2120
  130SOL    HW2  390   0.758   1.457   0.803 -0.6051  0.3345  0.3083
  131SOL     OW  391   0.913   1.278   0.146  0.5215 -0.5682 -0.0973
  131SOL    HW1  392   0.886   1.190   0.172 -1.2416 -0.8363 -2.6090
  131SOL    HW2  393   1.007   1.281   0.166  0.2107 -2.3000  1.8461
  132SOL     OW  394   0.315   1.686   2.008 -0.2537  0.3462 -0.5906
  132SOL    HW1  395   0.318   1.770   1.961 -0.8415 -0.3897 -1.9581
  132SOL    HW2  396   0.363   1.625   1.952  0.0758 -0.2647  0.3462
  133SOL     OW  397   0.555   1.831   0.149 -0.6686 -0.6205 -0.3743
  133SOL    HW1  398   0.485   1.834   0.215 -0.2403  0.3038  0.0490
  133SOL    HW2  399   0.526   1.892   0.081  0.2439  0.6405  0.3395
  134SOL     OW  400   1.171   0.370   1.936  0.1565 -0.1449  0.9471
  134SOL    HW1  401   1.195   0.451   1.981 -2.6613 -0.1681  2.6074
  134SOL    HW2  402   1.078   0.358   1.955 -0.1225 -2.3875 -1.4730
  135SOL     OW  403   2.332   0.356   2.199  0.1878 -0.4013  0.2846
  135SOL    HW1  404   2.291   0.275   2.228 -1.2934  0.2735  0.1065
  135SOL    HW2  405   2.296   0.423   2.257  1.1159  0.2030  0.1815
  136SOL     OW  406   1.699   1.570   1.170  0.1373 -0.0803  0.6153
  136SOL    HW1  407   1.753   1.646   1.191 -0.0399 -0.0202  0.8677
  136SOL    HW2  408   1.609   1.601   1.183  0.0968 -0.5993  1.6603
  137SOL     OW  409   0.243   1.951   1.121 -0.4935 -0.0205  0.4266
  137SOL    HW1  410   0.252   2.008   1.045  1.0400 -0.5119  0.2242
  137SOL    HW2  411   0.156   1.971   1.156 -1.0433  0.4803 -1.2150
  138SOL     OW  412   1.401   0.612   0.055  0.0589 -0.2448 -0.5925
  138SOL    HW1  413   1.311   0.599   0.083  0.8274 -1.9869  1.2640
  138SOL    HW2  414   1.400   0.693   0.004 -2.7353 -0.8445 -1.5683
  139SOL     OW  415   1.689   0.125   1.342  0.3164 -0.6340 -0.7070
  139SOL    HW1  416   1.762   0.065   1.353 -0.4561 -1.1739  1.7137
  139SOL    HW2  417   1.623   0.074   1.294  0.7450 -0.7974 -1.1232
  140SOL     OW  418   2.192   2.294   1.180 -0.1337 -0.7348 -0.3148
  140SOL    HW1  419   2.263   2.277   1.119  0.1685  0.3177 -0.2648
  140SOL    HW2  420   2.219   2.252   1.262  0.8125  0.3926 -0.0495
  141SOL     OW  421   1.960   2.329   0.525  0.4877  0.1922  0.4729
  141SOL    HW1  422   1.941   2.423   0.528  0.6248  0.3274 -1.8742
  141SOL    HW2  423   2.047   2.321   0.563  1.0056  1.1818 -0.4963
  142SOL     OW  424   0.691   1.784   0.382  0.6163 -0.0366  0.0613
  142SOL    HW1  425   0.701   1.788   0.287  1.3569  1.0867  0.1639
  142SOL    HW2  426   0.597   1.775   0.396  0.3434  1.2992 -0.7619
  143SOL     OW  427   1.978   1.139   2.215 -0.0775  0.3543 -0.2452
  143SOL    HW1  428   1.950   1.231   2.220 -0.5615  0.1190  2.1326
  143SOL    HW2  429   1.897   1.090   2.207 -0.0032  0.0009  1.0413
  144SOL     OW  430   0.106   0.661   2.099 -0.1794  0.1066  0.0491
  144SOL    HW1  431   0.115   0.720   2.174 -1.1077 -0.4299  0.6019
  144SOL    HW2  432   0.056   0.587   2.134  1.8714 -1.5110 -0.3554
  145SOL     OW  433   0.350   0.089   0.133  0.2360 -0.5500 -0.3008
  145SOL    HW1  434   0.259   0.090   0.162  0.4089  0.1175  0.2251
  145SOL    HW2  435   0.401   0.082   0.214  0.6748 -0.2988 -0.5536
  146SOL     OW  436   0.820   1.377   1.260 -0.0146 -1.1227  0.1944
  146SOL    HW1  437   0.903   1.344   1.294  0.9645  0.0470 -0.9959
  146SOL    HW2  438   0.810   1.335   1.175  1.8944  2.5068 -1.9283
  147SOL     OW  439   1.799   0.382   1.241  0.5788 -0.4528 -0.1684
  147SOL    HW1  440   1.721   0.430   1.212  0.1640 -0.2835  1.2320
  147SOL    HW2  441   1.764   0.305   1.286  1.2214 -0.4625  0.3079
  148SOL     OW  442   1.872   0.673   1.259 -0.5216  0.2513 -0.6565
  148SOL    HW1  443   1.940   0.736   1.238 -0.9246  0.4667 -1.3264
  148SOL    HW2  444   1.867   0.615   1.183  0.3375 -1.0509  0.2378
  149SOL     OW  445   0.028   1.291   0.284  0.1926  0.2851 -0.1003
  149SOL    HW1  446   0.004   1.266   0.373 -0.0211  1.5926  0.2121
  149SOL    HW2  447   0.019   1.386   0.282 -0.2125  0.2333 -1.6405
  150SOL     OW  448   0.486   1.669   0.716 -0.0775 -0.1457  0.0551
  150SOL    HW1  449   0.401   1.652   0.755 -0.0096  0.7866  0.6279
  150SOL    HW2  450   0.509   1.588   0.671 -0.9733 -0.6151  0.4423
  151SOL     OW  451   0.709   0.944   0.418  0.0165 -0.1449 -0.3269
  151SOL    HW1  452   0.674   0.859   0.393 -1.6041  1.2652 -3.0482
  151SOL    HW2  453   0.754   0.976   0.340  0.7653  1.4341  0.7153
  152SOL     OW  454   1.979   1.240   1.717  0.2407 -0.5169  0.0630
  152SOL    HW1  455   1.957   1.273   1.805  0.9880 -1.0071  0.4403
  152SOL    HW2  456   2.074   1.249   1.711  0.2627 -1.0550 -0.4599
  153SOL     OW  457   0.535   1.103   0.197  0.2731 -0.1587  0.2340
  153SOL    HW1  458   0.504   1.129   0.284  0.3990 -0.6798  0.4368
  153SOL    HW2  459   0.457   1.068   0.153  0.4728 -1.1069  0.6062
  154SOL     OW  460   1.618   2.236   2.175  0.0150  0.6337  0.0456
  154SOL    HW1  461   1.541   2.245   2.119 -0.3841  4.0344  1.0074
  154SOL    HW2  462   1.667   2.317   2.161  2.6034 -0.7699  0.6918
  155SOL     OW  463   0.798   0.919   0.678 -0.2531  0.2620 -0.7177
  155SOL    HW1  464   0.769   0.921   0.586  2.8642 -2.2736 -1.8556
  155SOL    HW2  465   0.814   0.826   0.696 -3.4039  0.3527  3.3313
  156SOL     OW  466   2.258   1.052   1.745 -0.1643 -0.5502 -0.4692
  156SOL    HW1  467   2.286   1.018   1.660 -0.5442 -1.3969 -0.2661
  156SOL    HW2  468   2.235   1.143   1.728 -0.7047 -0.8441 -1.3941
  157SOL     OW  469   1.140   1.757   0.745  0.0362 -0.3075  0.0048
  157SOL    HW1  470   1.154   1.808   0.664 -0.1916  1.4682  1.0467
  157SOL    HW2  471   1.050   1.779   0.771  0.2221 -0.6064  0.9051
  158SOL     OW  472   1.843   0.562   0.689 -0.3908 -0.5659 -0.4933
  158SOL    HW1  473   1.753   0.530   0.693 -0.2750 -0.6606  1.6415
  158SOL    HW2  474   1.897   0.483   0.691 -0.2248 -0.4733 -1.0648
  159SOL     OW  475   1.368   2.379   0.420  0.1294 -0.2517 -0.6412
  159SOL    HW1  476   1.351   2.473   0.428 -0.0653 -0.3788  0.4169
  159SOL    HW2  477   1.463   2.371   0.432  0.4561  0.0188 -2.7341
  160SOL     OW  478   0.483   0.073   0.372  0.0707  0.3536 -0.1658
  160SOL    HW1  479   0.573   0.100   0.390  0.0953 -0.1225  0.4319
  160SOL    HW2  480   0.432   0.111   0.444 -0.1947  0.5572 -0.4615
  161SOL     OW  481   0.946   0.515   0.627  0.3235 -0.8030  0.1107
  161SOL    HW1  482   0.988   0.587   0.674 -0.0497  0.6351 -1.7213
  161SOL    HW2  483   0.933   0.447   0.693  0.3581  0.9489  1.9434
  162SOL     OW  484   1.226   0.668   0.626 -0.2067 -0.2644 -0.0208
  162SOL    HW1  485   1.198   0.731   0.559  0.9359  0.8775  0.5702
  162SOL    HW2  486   1.320   0.656   0.610 -0.3842 -1.7433 -0.0574
  163SOL     OW  487   0.631   0.191   2.047  0.4035  0.2334  0.2907
  163SOL    HW1  488   0.632   0.171   1.953 -2.0642 -0.7804  0.4648
  163SOL    HW2  489   0.694   0.130   2.085  1.1052  0.3673 -0.6221
  164SOL     OW  490   2.115   1.907   0.818 -0.4968 -0.3893  0.4431
  164SOL    HW1  491   2.169   1.910   0.897 -0.3213 -1.2709  0.3567
  164SOL    HW2  492   2.028   1.883   0.849  0.0899 -3.0741  0.1166
  165SOL     OW  493   2.270   0.788   1.398 -0.1579 -0.1495 -0.4165
  165SOL    HW1  494   2.214   0.839   1.340 -0.0169  0.6368  0.1377
  165SOL    HW2  495   2.303   0.717   1.343  2.5963  2.4025 -2.2292
  166SOL     OW  496   0.618   0.709   0.275 -0.4160  0.5925 -0.4850
  166SOL    HW1  497   0.531   0.712   0.234 -0.0335  0.3535 -1.3251
  166SOL    HW2  498   0.618   0.626   0.323 -1.4329  1.5860  1.3190
  167SOL     OW  499   0.793   1.639   1.257 -0.6740  0.7216 -0.2037
  167SOL    HW1  500   0.722   1.636   1.193 -1.4987 -0.4211  0.7284
  167SOL    HW2  501   0.813   1.547   1.274  2.7440  1.0216 -2.2770
  168SOL     OW  502   2.404   1.755   0.376 -0.0710 -0.3039 -0.4563
  168SOL    HW1  503   2.469   1.816   0.340 -0.6087  0.3670 -0.2859
  168SOL    HW2  504   2.359   1.805   0.444 -0.3753 -0.9555 -0.1752
  169SOL     OW  505   0.913   2.255   1.022 -0.5452  0.6137 -0.1355
  169SOL    HW1  506   0.929   2.233   1.114  2.1323  1.4066 -0.3704
  169SOL    HW2  507   0.984   2.213   0.974 -2.1992 -0.1923 -1.9202
  170SOL     OW  508   0.044   0.139   1.553 -0.3169 -0.7962 -0.2923
  170SOL    HW1  509  -0.019   0.121   1.622 -0.2371 -0.2592 -0.0791
  170SOL    HW2  510   0.130   0.128   1.594 -0.2645  0.2295 -0.1090
  171SOL     OW  511   2.015   1.538   1.581 -0.0109  0.4777 -0.0207
  171SOL    HW1  512   2.000   1.617   1.633 -0.7926  0.1678  0.2307
  171SOL    HW2  513   2.069   1.481   1.637 -1.6153 -0.2338  0.8210
  172SOL     OW  514   1.449   1.515   0.320 -0.3112  0.0473 -0.1020
  172SOL    HW1  515   1.442   1.423   0.346 -0.0840  0.0746  0.0629
  172SOL    HW2  516   1.362   1.552   0.337 -0.8159 -0.4795 -1.5108
  173SOL     OW  517   2.221   2.329   1.885  0.2365 -0.7065  0.2821
  173SOL    HW1  518   2.142   2.355   1.838 -0.2970 -0.0427  1.5151
  173SOL    HW2  519   2.282   2.401   1.872  0.3164 -0.8090  0.0862
  174SOL     OW  520   2.039   1.944   1.406 -0.5017  0.2216  0.0314
  174SOL    HW1  521   2.103   2.005   1.443  0.3860 -1.4395  1.3440
  174SOL    HW2  522   1.997   1.992   1.335  0.3499  2.2545  0.8698
  175SOL     OW  523   0.175   1.300   0.059  0.0801  1.1790 -0.2291
  175SOL    HW1  524   0.089   1.292   0.017  0.3573 -1.9466 -0.3374
  175SOL    HW2  525   0.156   1.293   0.153  0.1008  1.7502 -0.1807
  176SOL     OW  526   1.742   2.381   0.941 -0.0755 -0.0026  0.3031
  176SOL    HW1  527   1.740   2.476   0.952 -1.1132 -0.1487  1.4213
  176SOL    HW2  528   1.829   2.355   0.971  0.5631  0.6935 -0.9152
  177SOL     OW  529   0.109   0.782   2.369 -0.0557 -0.1649  0.4047
  177SOL    HW1  530   0.053   0.858   2.356  0.7469  0.5546  1.1562
  177SOL    HW2  531   0.124   0.779   2.464  1.4561 -0.1573  0.1747
  178SOL     OW  532   1.017   1.163   1.262 -0.4240  0.5639  0.7125
  178SOL    HW1  533   0.949   1.145   1.327  1.1230 -1.7028  1.7562
  178SOL    HW2  534   1.099   1.149   1.309  0.7226 -0.8355 -1.6522
  179SOL     OW  535   1.797   0.523   0.204 -0.1043  0.2037  0.1772
  179SOL    HW1  536   1.783   0.602   0.258  0.1446  1.0514 -0.9807
  179SOL    HW2  537   1.892   0.511   0.204 -0.2164 -0.7661  1.2788
  180SOL     OW  538   1.569   0.476   1.581 -0.3434 -0.6193 -0.4730
  180SOL    HW1  539   1.654   0.433   1.585  0.1776  0.4281 -0.1072
  180SOL    HW2  540   1.578   0.542   1.512 -0.8001 -0.3973 -0.3247
  181SOL     OW  541   1.823   1.709   0.735  0.2050 -0.1818 -0.3755
  181SOL    HW1  542   1.879   1.743   0.805  0.0259  0.0630 -0.3511
  181SOL    HW2  543   1.837   1.615   0.737  1.2193 -0.0544 -0.8792
  182SOL     OW  544   2.090   2.196   0.798 -0.2312 -0.1254  0.0760
  182SOL    HW1  545   2.181   2.213   0.773 -0.4784  0.5235 -0.4046
  182SOL    HW2  546   2.090   2.106   0.829  0.4338 -0.3755 -0.6227
  183SOL     OW  547   1.095   0.262   2.412 -0.2052  0.2963  0.3684
  183SOL    HW1  548   1.151   0.321   2.361 -1.9659  0.6467 -1.2061
  183SOL    HW2  549   1.010   0.305   2.413 -0.9987 -1.2669  0.9205
  184SOL     OW  550   0.847   0.053   2.115  0.4486 -0.1366 -0.1056
  184SOL    HW1  551   0.837  -0.038   2.084  0.0176 -1.0299  2.5344
  184SOL    HW2  552   0.901   0.045   2.194  0.0693  1.8855  0.3726
  185SOL     OW  553   0.393   2.045   0.053 -0.1720  0.2713 -0.3370
  185SOL    HW1  554   0.400   2.105   0.128 -0.9279 -0.7544  0.5792
  185SOL    HW2  555   0.375   2.102  -0.022  1.7547  1.4193  0.0386
  186SOL     OW  556   0.577   1.579   1.093 -0.0165  0.3128  0.2208
  186SOL    HW1  557   0.550   1.491   1.066  1.7021 -0.6293  1.5226
  186SOL    HW2  558   0.497   1.618   1.129 -0.6186 -1.0118  0.3542
  187SOL     OW  559   2.026   1.545   0.429 -0.0550 -0.0521  0.2888
  187SOL    HW1  560   1.937   1.507   0.429 -0.0045 -0.1930 -0.6758
  187SOL    HW2  561   2.069   1.503   0.355  0.9022 -0.1582  0.9043
  188SOL     OW  562   1.738   1.525   1.528 -0.2064 -0.6703 -0.8815
  188SOL    HW1  563   1.736   1.430   1.536 -0.4020 -0.5271  1.2850
  188SOL    HW2  564   1.831   1.548   1.533 -0.1674 -0.7444 -1.2916
  189SOL     OW  565   1.407   0.411   0.555  0.0318  0.3544  0.0615
  189SOL    HW1  566   1.429   0.318   0.552  3.2428  1.0418  0.7970
  189SOL    HW2  567   1.311   0.413   0.549 -0.1161 -2.9885  0.4039
  190SOL     OW  568   2.245   0.189   0.825 -0.0732  0.7327  0.3196
  190SOL    HW1  569   2.286   0.273   0.806  0.4010  0.4394  0.0391
  190SOL    HW2  570   2.238   0.187   0.921  0.4504  0.8333  0.3568
  191SOL     OW  571   2.294   2.119   1.745 -0.4605  0.0430 -0.2355
  191SOL    HW1  572   2.242   2.068   1.806  0.8684  1.2476  2.0041
  191SOL    HW2  573   2.277   2.210   1.769  1.5149  0.4932 -0.3928
  192SOL     OW  574   1.046   1.899   0.147 -0.1706 -0.4313  0.0490
  192SOL    HW1  575   1.034   1.977   0.201 -0.0769 -0.4703  0.1270
  192SOL    HW2  576   0.961   1.856   0.147 -0.8912  0.9192 -1.9600
  193SOL     OW  577   2.378   0.544   1.272  0.5154 -0.0521 -0.0531
  193SOL    HW1  578   2.339   0.458   1.287  1.7196 -0.3699  1.3137
  193SOL    HW2  579   2.458   0.543   1.323  0.8352  1.6779 -0.5048
  194SOL     OW  580   0.366   0.560   2.092  0.6143 -0.5221 -0.2256
  194SOL    HW1  581   0.272   0.581   2.089  0.7068 -0.1695 -0.5531
  194SOL    HW2  582   0.410   0.642   2.070  0.9452 -1.2680 -2.4534
  195SOL     OW  583   1.838   1.377   1.994 -0.3494 -0.2830  0.6539
  195SOL    HW1  584   1.754   1.401   1.953  0.2549  0.7687  0.0108
  195SOL    HW2  585   1.815   1.354   2.084 -1.3520 -0.1101  0.4485
  196SOL     OW  586   0.423   0.753   0.967  0.5465  0.0888  0.2557
  196SOL    HW1  587   0.512   0.756   1.004  0.2537 -0.4270  1.0039
  196SOL    HW2  588   0.375   0.695   1.026  0.5377 -2.2534 -1.9469
  197SOL     OW  589   0.201   1.024   1.354 -0.1179 -0.1646  0.3839
  197SOL    HW1  590   0.247   1.097   1.312 -1.1431  1.1512  1.5312
  197SOL    HW2  591   0.129   1.004   1.294 -0.5421  0.5583  0.6457
  198SOL     OW  592   1.022   0.132   1.711 -0.0089 -0.6466  0.4597
  198SOL    HW1  593   0.932   0.143   1.679  0.0891 -0.5506  0.2233
  198SOL    HW2  594   1.025   0.185   1.791 -0.0806 -0.4256  0.3177
  199SOL     OW  595   0.100   0.126   0.262 -0.2911  0.4427  0.2597
  199SOL    HW1  596   0.013   0.091   0.280 -0.4301  0.6812  0.0722
  199SOL    HW2  597   0.085   0.190   0.192  0.3756 -1.2108 -1.4223
  200SOL     OW  598   2.042   1.155   1.225 -0.3673  0.5388  0.5668
  200SOL    HW1  599   2.020   1.091   1.293  0.3724 -0.8813 -0.5038
  200SOL    HW2  600   1.961   1.202   1.209 -0.5399  0.9627  2.4834
  201SOL     OW  601   0.239   0.097   1.912  0.6289 -0.1037  0.6862
  201SOL    HW1  602   0.287   0.032   1.963  0.1313 -1.7228 -0.8460
  201SOL    HW2  603   0.266   0.181   1.949  0.2552 -1.2027  3.6255
  202SOL     OW  604   0.895   1.166   2.221 -0.1213  0.2867 -0.0210
  202SOL    HW1  605   0.933   1.251   2.202  0.6087  0.1984  1.0252
  202SOL    HW2  606   0.812   1.186   2.266 -1.6772  0.4877 -2.8758
  203SOL     OW  607   1.043   2.171   0.152  0.0233 -0.1996 -0.1065
  203SOL    HW1  608   1.072   2.216   0.231 -1.5917  0.5024  0.0923
  203SOL    HW2  609   1.099   2.205   0.082  0.3870  0.3494  0.4539
  204SOL     OW  610   1.334   0.153   1.035 -0.4321  0.0696  0.2486
  204SOL    HW1  611   1.363   0.079   0.981 -0.7566 -0.3337  0.6210
  204SOL    HW2  612   1.313   0.113   1.120 -1.7980  0.4063  0.0758
  205SOL     OW  613   0.767   0.082   0.032 -0.1359 -0.1785  0.1376
  205SOL    HW1  614   0.742   0.006   0.085 -2.9804  0.3220 -0.4132
  205SOL    HW2  615   0.772   0.154   0.094  0.9830 -0.4809  0.4083
  206SOL     OW  616   1.373   0.977   1.793 -0.0370  0.3057 -0.4850
  206SOL    HW1  617   1.423   0.961   1.713 -2.0973  2.1779 -2.2380
  206SOL    HW2  618   1.338   0.891   1.816  1.4231 -0.4453 -1.0141
  207SOL     OW  619   0.718   0.253   0.410  0.1059  0.6770 -0.2747
  207SOL    HW1  620   0.787   0.266   0.345  1.7791  0.8316  1.4858
  207SOL    HW2  621   0.737   0.167   0.448 -0.9484  0.5190 -0.1039
  208SOL     OW  622   1.492   1.082   2.032  0.1476  0.1420  0.1113
  208SOL    HW1  623   1.587   1.080   2.016  0.4611 -2.7547  1.9209
  208SOL    HW2  624   1.454   1.040   1.955  0.7147 -2.4825  1.1962
  209SOL     OW  625   0.566   0.857   1.760 -0.7044  0.3715  0.1673
  209SOL    HW1  626   0.509   0.905   1.701  1.6491  0.1167 -2.3833
  209SOL    HW2  627   0.544   0.765   1.747  0.5676  0.2401 -1.1714
  210SOL     OW  628   0.879   1.500   2.408 -0.3205  0.2244  0.1784
  210SOL    HW1  629   0.973   1.495   2.393 -0.6500 -3.4798 -1.1538
  210SOL    HW2  630   0.861   1.434   2.474 -2.1375  0.1102 -0.4017
  211SOL     OW  631   0.531   0.230   2.414 -0.1144 -0.1533  0.3761
  211SOL    HW1  632   0.458   0.179   2.449 -0.0024  0.5795  1.6823
  211SOL    HW2  633   0.592   0.164   2.381 -0.0296 -0.8851  1.9421
  212SOL     OW  634   1.272   1.984   1.321  0.1086  0.6057 -0.4533
  212SOL    HW1  635   1.242   2.066   1.359  1.3286  1.0258 -0.3575
  212SOL    HW2  636   1.249   1.991   1.228 -1.6214  0.1718 -0.0650
  213SOL     OW  637   1.442   0.988   2.326  0.8211 -0.2345  0.0815
  213SOL    HW1  638   1.354   0.991   2.287  1.3260 -0.0753 -1.0814
  213SOL    HW2  639   1.433   1.033   2.410 -0.3168 -0.6484  0.1905
  214SOL     OW  640   1.011   0.140   1.424  0.1260  0.1823  0.2891
  214SOL    HW1  641   1.013   0.156   1.518  0.0805 -0.9742  0.4982
  214SOL    HW2  642   0.970   0.218   1.387  0.7306  0.9229  1.1616
  215SOL     OW  643   0.883   1.796   0.805 -0.1497 -0.2553 -0.5065
  215SOL    HW1  644   0.817   1.852   0.847 -1.2450 -0.6484 -1.6478
  215SOL    HW2  645   0.846   1.707   0.811 -0.0819 -0.3842 -1.7903
  216SOL     OW  646   1.765   1.752   1.818  0.3925  0.9701  0.2499
  216SOL    HW1  647   1.844   1.733   1.768  0.1902 -4.0975  1.4896
  216SOL    HW2  648   1.796   1.781   1.903  0.8723  1.0692  0.0395
  217SOL     OW  649   0.622   0.174   1.001 -0.0253 -0.0583 -0.4944
  217SOL    HW1  650   0.532   0.204   1.013  0.7256  1.4761  1.5343
  217SOL    HW2  651   0.621   0.083   1.033 -0.3239  0.7606  1.9223
  218SOL     OW  652   1.405   1.457   1.071  0.3109 -0.5449  0.6241
  218SOL    HW1  653   1.441   1.456   1.159  0.5184 -0.0315  0.5466
  218SOL    HW2  654   1.337   1.524   1.073  0.1191 -0.7324  0.4716
  219SOL     OW  655   1.908   2.248   0.263  0.1352  0.4794 -0.2189
  219SOL    HW1  656   1.865   2.329   0.236 -0.8266  0.0626  0.0416
  219SOL    HW2  657   1.955   2.271   0.343 -0.0932  0.7959 -0.1750
  220SOL     OW  658   1.554   1.406   2.279 -0.0054  0.0548  0.3863
  220SOL    HW1  659   1.479   1.387   2.222  0.4382 -0.9634  0.1334
  220SOL    HW2  660   1.528   1.484   2.328 -0.4897  0.8055 -1.0408
  221SOL     OW  661   1.145   1.017   0.107 -1.0203 -0.3992 -0.1772
  221SOL    HW1  662   1.174   1.083   0.044  1.2827  0.0370  1.2538
  221SOL    HW2  663   1.099   0.952   0.054  0.0525  0.4147 -2.1809
  222SOL     OW  664   0.608   1.834   0.915 -0.4600  0.4341  0.1633
  222SOL    HW1  665   0.648   1.755   0.952  0.8222 -0.1636 -2.3616
  222SOL    HW2  666   0.546   1.801   0.850 -3.4095  1.4324  2.3685
  223SOL     OW  667   2.109   0.334   0.460  0.9418  0.2062 -0.0165
  223SOL    HW1  668   2.042   0.307   0.398  2.1178 -1.8268 -0.4540
  223SOL    HW2  669   2.110   0.430   0.454 -1.3176  0.2203 -0.5960
  224SOL     OW  670   0.520   1.143   1.469  1.2933 -0.2640 -0.1350
  224SOL    HW1  671   0.450   1.149   1.534  1.3721  2.5916 -0.2375
  224SOL    HW2  672   0.495   1.070   1.413 -1.3578  0.3871  0.1368
  225SOL     OW  673   0.683   1.759   1.876 -0.0322  0.1605  0.2613
  225SOL    HW1  674   0.773   1.763   1.909  0.9372 -1.0400 -2.1039
  225SOL    HW2  675   0.640   1.834   1.916  1.5900 -0.1186  2.6432
  226SOL     OW  676   0.028   2.077   1.253  0.2475  0.5185 -0.0334
  226SOL    HW1  677  -0.016   2.026   1.320  1.1432 -0.3138 -0.0725
  226SOL    HW2  678   0.050   2.160   1.296 -1.3567  0.9513 -0.0193
  227SOL     OW  679   1.889   0.931   0.097  0.0959 -0.7925  0.6240
  227SOL    HW1  680   1.915   0.854   0.045  1.0811 -0.2371  0.2656
  227SOL    HW2  681   1.825   0.976   0.042  1.9186  0.3596 -0.6141
  228SOL     OW  682   2.209   0.099   0.574  0.3350  0.6493 -0.3665
  228SOL    HW1  683   2.182   0.179   0.530  0.5956 -0.1598 -2.0515
  228SOL    HW2  684   2.219   0.124   0.666 -0.3706  2.3410 -0.7322
  229SOL     OW  685   0.246   2.253   2.011  0.3183 -0.4432  0.3692
  229SOL    HW1  686   0.293   2.221   2.088 -0.0436  1.3720  1.3666
  229SOL    HW2  687   0.163   2.284   2.045 -0.3645 -0.7869 -0.9549
  230SOL     OW  688   1.158   2.360   0.652  0.2738  0.4719 -0.2752
  230SOL    HW1  689   1.084   2.395   0.701  0.2789 -1.1028  0.9396
  230SOL    HW2  690   1.234   2.377   0.708  0.5826  0.5835 -0.7274
  231SOL     OW  691   1.647   2.192   1.499  0.2259  0.6918 -0.5459
  231SOL    HW1  692   1.595   2.117   1.527 -0.8181  2.1991  1.7430
  231SOL    HW2  693   1.582   2.254   1.465  0.6072  2.1354  1.2800
  232SOL     OW  694   1.454   2.384   0.151  0.4851  0.3048 -0.2633
  232SOL    HW1  695   1.457   2.290   0.130  0.8643  0.3817 -0.5657
  232SOL    HW2  696   1.385   2.392   0.217 -0.3040 -0.0386 -1.0332
  233SOL     OW  697   1.756   0.770   2.077  0.3733 -0.0899  0.2967
  233SOL    HW1  698   1.843   0.731   2.084  0.8260  0.3501 -2.3407
  233SOL    HW2  699   1.725   0.743   1.990 -2.5850 -1.1242  1.6234
  234SOL     OW  700   2.377   0.545   0.486 -0.4005  0.1226  0.2840
  234SOL    HW1  701   2.292   0.580   0.458  0.2440 -0.0756 -2.0389
  234SOL    HW2  702   2.382   0.459   0.446  0.5088 -0.2480  1.1842
  235SOL     OW  703   1.607   0.309   0.348 -0.7422 -0.0719 -0.2479
  235SOL    HW1  704   1.667   0.370   0.304  0.4046 -0.4055  0.8248
  235SOL    HW2  705   1.553   0.274   0.277  0.1689  0.4174 -1.2063
  236SOL     OW  706   0.149   1.695   0.704 -0.6700 -0.3852 -0.3503
  236SOL    HW1  707   0.055   1.688   0.719 -0.8378  1.9416 -0.2522
  236SOL    HW2  708   0.165   1.788   0.691  1.1719 -1.0437 -3.3588
  237SOL     OW  709   2.321   1.513   2.228  0.0565 -0.5837  0.5578
  237SOL    HW1  710   2.355   1.602   2.233  0.5248 -0.6841 -0.5574
  237SOL    HW2  711   2.227   1.522   2.243 -0.1955  0.3557 -1.3605
  238SOL     OW  712   1.943   0.921   0.950  0.3611 -0.9890  0.4213
  238SOL    HW1  713   1.850   0.896   0.946  0.3350 -0.9276  0.6567
  238SOL    HW2  714   1.947   1.005   0.905  0.5405 -1.6840 -0.8840
  239SOL     OW  715   0.859   2.164   0.458 -0.5159  0.2983  0.5249
  239SOL    HW1  716   0.847   2.078   0.499 -0.4026 -1.8508 -3.6800
  239SOL    HW2  717   0.954   2.171   0.444 -0.7182  0.2382 -0.9094
  240SOL     OW  718   2.307   1.251   2.363  0.1552  0.1656  0.0132
  240SOL    HW1  719   2.304   1.339   2.325 -0.7660  1.0067  1.9203
  240SOL    HW2  720   2.217   1.234   2.391  0.6567 -0.6786  1.1864
  241SOL     OW  721   0.040   0.080   1.180 -0.4948 -0.0997 -0.1318
  241SOL    HW1  722   0.022   0.021   1.108 -0.1092 -0.9506  0.4617
  241SOL    HW2  723   0.049   0.023   1.257  1.0491  0.6087  0.2387
  242SOL     OW  724   0.928   0.270   0.248  0.0509  0.2054 -0.1520
  242SOL    HW1  725   0.918   0.286   0.154  0.5006  1.2261 -0.0343
  242SOL    HW2  726   1.021   0.252   0.260  0.3322  1.8931  0.3454
  243SOL     OW  727   2.009   2.052   1.168  0.3686 -0.2650  0.2645
  243SOL    HW1  728   2.099   2.059   1.136  0.0726 -0.1235 -0.5412
  243SOL    HW2  729   1.965   2.130   1.132  0.1415  0.1328  1.3691
  244SOL     OW  730   1.913   0.237   0.296 -0.3717  0.2017  0.5073
  244SOL    HW1  731   1.901   0.267   0.206 -0.3251 -0.5075  0.2644
  244SOL    HW2  732   1.853   0.163   0.305  0.5983 -0.5824  0.6380
  245SOL     OW  733   2.063   1.198   0.085 -0.6481 -0.5443  0.0601
  245SOL    HW1  734   1.974   1.186   0.052 -0.0731 -0.8280 -1.4099
  245SOL    HW2  735   2.086   1.112   0.121  0.1304 -1.3821 -2.3174
  246SOL     OW  736   1.880   1.787   2.074  0.2070  0.1984 -0.8058
  246SOL    HW1  737   1.853   1.795   2.165  2.1732 -1.2019 -0.0518
  246SOL    HW2  738   1.976   1.787   2.077  0.3184  0.9174 -2.9537
  247SOL     OW  739   2.017   0.802   0.626  0.3578  0.1601  0.5642
  247SOL    HW1  740   2.054   0.880   0.667  0.8610 -0.5666  1.5145
  247SOL    HW2  741   1.948   0.774   0.686 -0.0743  0.0768  0.0391
  248SOL     OW  742   0.893   1.592   0.497  0.1066 -0.0841 -0.0928
  248SOL    HW1  743   0.833   1.644   0.442 -1.1882 -1.5923 -0.1558
  248SOL    HW2  744   0.865   1.502   0.482  1.5287 -0.7042  0.9695
  249SOL     OW  745   0.891   0.309   0.802 -0.3264 -0.1955  0.3325
  249SOL    HW1  746   0.918   0.217   0.809  0.9759  0.2301  1.2466
  249SOL    HW2  747   0.802   0.311   0.838  0.1276 -0.8931  1.5472
  250SOL     OW  748   1.389   2.335   0.852 -0.6869  0.1646 -0.2262
  250SOL    HW1  749   1.334   2.272   0.898  0.0844  0.9812  1.8783
  250SOL    HW2  750   1.461   2.283   0.815 -0.8267 -0.3755  0.2682
  251SOL     OW  751   1.220   2.030   2.387 -0.1102 -0.2870  0.7657
  251SOL    HW1  752   1.168   2.059   2.311  0.6945  1.8790  0.9925
  251SOL    HW2  753   1.159   1.980   2.440 -1.7703  1.5134  0.6180
  252SOL     OW  754   0.262   1.549   0.879 -0.2682 -0.0993  0.4703
  252SOL    HW1  755   0.206   1.592   0.815  0.4614 -1.1936 -0.9354
  252SOL    HW2  756   0.246   1.596   0.961 -3.3062 -0.4765  0.1369
  253SOL     OW  757   0.185   0.343   2.207  0.0125  0.0061 -0.1401
  253SOL    HW1  758   0.215   0.362   2.119 -1.2138 -0.6864 -0.7215
  253SOL    HW2  759   0.090   0.345   2.201 -0.0774  1.4271  1.5010
  254SOL     OW  760   2.041   1.462   1.270  0.0059 -0.3732  0.1019
  254SOL    HW1  761   2.009   1.415   1.347 -0.8645 -2.0087 -1.2146
  254SOL    HW2  762   1.996   1.546   1.271 -1.7173 -1.2874  0.1593
  255SOL     OW  763   1.039   0.007   2.365  0.0769  0.0799 -0.1276
  255SOL    HW1  764   0.964   0.011   2.425 -1.9308 -0.1374 -2.5342
  255SOL    HW2  765   1.073   0.097   2.363 -0.9493  0.4766 -0.0286
  256SOL     OW  766   0.215   1.203   1.975  0.5587  0.0873  0.3731
  256SOL    HW1  767   0.258   1.257   2.042  0.2701 -1.4208  1.8107
  256SOL    HW2  768   0.169   1.266   1.920  2.2797  1.5038  0.5052
  257SOL     OW  769   1.671   1.715   0.478  0.1789  0.4303 -0.4639
  257SOL    HW1  770   1.727   1.718   0.556  0.2985  0.6342 -0.5562
  257SOL    HW2  771   1.597   1.772   0.499  0.1943  0.4584 -0.4859
  258SOL     OW  772   0.565   2.074   1.514  0.0517  0.0084  0.3502
  258SOL    HW1  773   0.607   2.144   1.463  1.7962 -0.1168  1.5941
  258SOL    HW2  774   0.590   2.091   1.604 -2.5627 -0.1131  1.1393
  259SOL     OW  775   0.404   1.334   1.023  0.5534  0.1871 -0.2670
  259SOL    HW1  776   0.353   1.396   0.972  0.8023 -1.3075 -2.3729
  259SOL    HW2  777   0.381   1.248   0.987  1.9979 -0.7615  1.0115
  260SOL     OW  778   1.910   1.831   0.990 -0.2158 -0.2996  0.0027
  260SOL    HW1  779   1.817   1.830   1.013 -0.0565  0.8780  0.7375
  260SOL    HW2  780   1.953   1.872   1.065  0.8262 -0.2615 -0.6060
  261SOL     OW  781   0.666   1.227   2.335  0.4968 -0.0066 -0.5188
  261SOL    HW1  782   0.640   1.239   2.427  2.4742 -0.6684  0.1475
  261SOL    HW2  783   0.608   1.157   2.303  1.9007 -2.0079  1.1718
  262SOL     OW  784   0.626   2.319   1.377  0.7138 -0.1102  0.1467
  262SOL    HW1  785   0.607   2.329   1.283 -1.0555 -0.6697  0.4423
  262SOL    HW2  786   0.621   2.408   1.411  0.4861 -0.0116 -0.1358
  263SOL     OW  787   1.588   1.628   1.995  0.0208  0.5132 -0.3224
  263SOL    HW1  788   1.591   1.549   1.942 -2.3621  0.7395 -0.8581
  263SOL    HW2  789   1.640   1.692   1.946  0.7162 -0.2931 -0.6400
  264SOL     OW  790   2.394   2.308   0.986  0.0830  0.1530 -0.3200
  264SOL    HW1  791   2.376   2.360   0.908  0.6007  2.0219  0.7748
  264SOL    HW2  792   2.477   2.263   0.967  1.5676  2.6099  0.1145
  265SOL     OW  793   0.044   2.346   0.647 -0.2069 -0.3465  0.3047
  265SOL    HW1  794   0.077   2.401   0.576  0.1735  0.5743  1.1856
  265SOL    HW2  795  -0.050   2.364   0.649 -0.1152  0.1257  0.4565
  266SOL     OW  796   1.878   1.250   0.841  0.3319 -0.3906 -0.6303
  266SOL    HW1  797   1.783   1.264   0.851 -0.0800 -1.5558 -2.5948
  266SOL    HW2  798   1.917   1.334   0.864 -1.2490  0.3948 -0.7349
  267SOL     OW  799   1.992   1.788   1.659  0.0117 -0.2743  0.1266
  267SOL    HW1  800   2.080   1.816   1.686 -0.3810  1.1053  0.0063
  267SOL    HW2  801   1.965   1.853   1.594 -1.6788  0.1466  1.2225
  268SOL     OW  802   1.329   0.938   0.366  0.0927  0.2505 -0.3851
  268SOL    HW1  803   1.347   0.854   0.408 -0.2247  0.5929  0.4414
  268SOL    HW2  804   1.262   0.919   0.301  1.7407 -0.5985 -1.8890
  269SOL     OW  805   0.116   1.326   1.754 -0.2321 -0.3554  0.0386
  269SOL    HW1  806   0.161   1.397   1.707  0.1407 -1.0136 -0.6123
  269SOL    HW2  807   0.083   1.269   1.685 -0.7028 -0.7082  0.5580
  270SOL     OW  808   1.100   0.637   1.314  0.1102 -0.2025 -0.2333
  270SOL    HW1  809   1.189   0.645   1.280 -0.2617  1.8748 -0.7745
  270SOL    HW2  810   1.054   0.714   1.281 -2.0656 -1.5499 -0.4759
  271SOL     OW  811   0.307   0.800   1.480  0.1535 -0.1156  0.1825
  271SOL    HW1  812   0.301   0.817   1.575 -1.2145 -0.9945  0.2631
  271SOL    HW2  813   0.265   0.876   1.440  1.5103  0.6782  0.2391
  272SOL     OW  814   0.197   0.658   1.851  0.0682  0.0891 -0.1889
  272SOL    HW1  815   0.211   0.744   1.811  2.0684  0.2292  0.7339
  272SOL    HW2  816   0.139   0.676   1.925  0.4210  0.6454 -0.0430
  273SOL     OW  817   0.404   1.829   0.366 -0.2343  0.0267  0.1065
  273SOL    HW1  818   0.358   1.750   0.395  0.9721 -0.7661 -0.0857
  273SOL    HW2  819   0.336   1.882   0.323 -1.0564 -0.9130  0.2268
  274SOL     OW  820   0.719   0.691   2.322  0.8762  0.5230 -0.4308
  274SOL    HW1  821   0.706   0.617   2.263 -0.1338  0.8923 -0.6776
  274SOL    HW2  822   0.637   0.697   2.372  1.5399  0.5107  0.6717
  275SOL     OW  823   0.934   0.672   0.244  0.1291 -0.4823 -0.6451
  275SOL    HW1  824   0.845   0.706   0.247  0.1529 -0.5468  1.8935
  275SOL    HW2  825   0.926   0.580   0.268  1.0009 -0.1342  1.1047
  276SOL     OW  826   0.805   1.014   0.192 -0.1335 -0.4526 -0.2147
  276SOL    HW1  827   0.831   0.981   0.106 -0.3653  0.6028 -0.7103
  276SOL    HW2  828   0.710   1.027   0.185 -0.1921 -0.6022  0.2852
  277SOL     OW  829   1.361   1.795   0.904 -0.2737 -0.0021  0.0720
  277SOL    HW1  830   1.269   1.811   0.884 -0.6857 -2.3074  0.0509
  277SOL    HW2  831   1.387   1.725   0.845  1.5700  0.7870 -0.0751
  278SOL     OW  832   2.299   0.583   2.376 -0.0120 -0.2246  0.9457
  278SOL    HW1  833   2.379   0.633   2.393  0.8477 -1.5315  0.8107
  278SOL    HW2  834   2.232   0.649   2.362  0.9106  0.8935  1.7059
  279SOL     OW  835   2.195   0.657   0.897 -0.6271 -0.2993  0.8220
  279SOL    HW1  836   2.165   0.577   0.939  0.8007 -1.2730  0.0319
  279SOL    HW2  837   2.125   0.680   0.836 -2.5614  0.9428  3.4581
  280SOL     OW  838   0.357   2.308   1.223 -0.2463  0.9409  0.1761
  280SOL    HW1  839   0.378   2.381   1.281 -1.4244  1.8487 -0.5162
  280SOL    HW2  840   0.307   2.247   1.279  2.2178 -0.1847  1.2164
  281SOL     OW  841   0.686   0.650   0.768 -0.0297 -0.5002  0.1391
  281SOL    HW1  842   0.728   0.569   0.738  1.5904  0.9471 -1.6814
  281SOL    HW2  843   0.609   0.659   0.713  1.1090  0.4079 -1.3526
  282SOL     OW  844   1.705   0.164   0.539  0.4476 -0.6273 -0.2227
  282SOL    HW1  845   1.731   0.220   0.611 -1.8564 -0.1696  0.2984
  282SOL    HW2  846   1.671   0.224   0.472  2.9649 -0.9985 -1.9125
  283SOL     OW  847   2.167   0.952   2.196 -0.1792 -0.4793  0.1100
  283SOL    HW1  848   2.204   0.921   2.114  0.5697  0.1028  0.2152
  283SOL    HW2  849   2.099   1.015   2.170  0.2838 -0.0474 -0.0591
  284SOL     OW  850   1.419   0.902   0.885  0.1620  0.1306  0.4631
  284SOL    HW1  851   1.460   0.962   0.822  1.3074  1.0416  2.0243
  284SOL    HW2  852   1.381   0.959   0.952 -1.1137 -0.8174  0.5707
  285SOL     OW  853   0.494   1.373   0.636 -0.7225  0.2563 -0.3986
  285SOL    HW1  854   0.539   1.371   0.720 -2.6479  3.7960  0.8155
  285SOL    HW2  855   0.518   1.291   0.594 -0.0847 -1.8093  3.7755
  286SOL     OW  856   0.845   0.983   2.020 -0.1383  0.4974  0.3004
  286SOL    HW1  857   0.859   1.057   2.080 -1.0186  0.3785  0.6634
  286SOL    HW2  858   0.759   1.000   1.982  0.7020  0.9147 -1.4360
  287SOL     OW  859   1.219   1.423   0.625 -0.5499  0.4982  0.2598
  287SOL    HW1  860   1.147   1.360   0.629 -0.3521  0.2483 -0.0354
  287SOL    HW2  861   1.207   1.479   0.702  0.3208 -1.0368  1.5493
  288SOL     OW  862   2.339   1.856   0.641 -0.3750  0.2019 -0.1322
  288SOL    HW1  863   2.301   1.936   0.675  0.1455  0.4359 -0.0988
  288SOL    HW2  864   2.306   1.787   0.699  1.8183  0.7997  1.8652
  289SOL     OW  865   1.698   0.838   0.964 -0.1744  0.1993 -0.3853
  289SOL    HW1  866   1.660   0.923   0.987  2.7537  1.3217  0.5205
  289SOL    HW2  867   1.659   0.818   0.878 -2.7857  1.2349  0.5003
  290SOL     OW  868   2.249   0.437   0.213 -0.4177  0.3704  0.2088
  290SOL    HW1  869   2.210   0.518   0.248 -1.3568 -0.3216  0.8120
  290SOL    HW2  870   2.284   0.462   0.128 -1.1904  1.2870  0.1476
  291SOL     OW  871   0.151   0.322   0.062 -0.2737 -0.1535  0.0635
  291SOL    HW1  872   0.155   0.372  -0.020 -2.6424 -2.5337 -1.5945
  291SOL    HW2  873   0.242   0.300   0.080  0.3994  1.3323 -1.3175
  292SOL     OW  874   2.313   1.224   1.249  0.2069 -0.3823 -0.2849
  292SOL    HW1  875   2.222   1.197   1.256  0.2227  0.1676  3.1572
  292SOL    HW2  876   2.354   1.157   1.194 -1.6496 -2.3518  0.6722
  293SOL     OW  877   1.463   1.055   1.275  0.1200 -0.1842 -0.0637
  293SOL    HW1  878   1.401   1.072   1.204  1.2504  0.3862 -0.9223
  293SOL    HW2  879   1.527   0.995   1.238  1.2264  0.8260  0.1685
  294SOL     OW  880   1.551   2.250   1.098 -0.1921 -0.1414 -0.5406
  294SOL    HW1  881   1.617   2.297   1.046  0.1712  0.5414  0.5292
  294SOL    HW2  882   1.527   2.175   1.044  1.4077 -0.3591 -0.9610
  295SOL     OW  883   2.342   0.304   1.389 -0.2945  0.5372 -0.4773
  295SOL    HW1  884   2.394   0.249   1.448  0.3657 -0.3650 -1.8732
  295SOL    HW2  885   2.262   0.323   1.438 -0.2754 -1.1793  0.2513
  296SOL     OW  886   1.189   1.670   0.077 -0.5740 -0.1046  0.0639
  296SOL    HW1  887   1.200   1.602   0.143  2.2731  0.0365 -0.1963
  296SOL    HW2  888   1.135   1.737   0.119  0.0009 -0.6748  1.7274
  297SOL     OW  889   2.144   0.337   1.572 -0.4669  0.3735 -0.2327
  297SOL    HW1  890   2.108   0.300   1.652 -0.3439  1.4959  0.3417
  297SOL    HW2  891   2.179   0.422   1.598  0.4032  0.3460 -1.2828
  298SOL     OW  892   0.095   1.759   2.165 -0.0523 -0.1958  1.0839
  298SOL    HW1  893   0.172   1.714   2.129  0.5988  0.6664  1.3876
  298SOL    HW2  894   0.116   1.852   2.157 -1.9861  0.1170 -0.8603
  299SOL     OW  895   1.976   1.223   0.386 -0.7141 -0.1344  0.3295
  299SOL    HW1  896   2.071   1.216   0.397 -0.5251  2.5674  0.7739
  299SOL    HW2  897   1.966   1.267   0.301 -1.4541  2.4755  1.7402
  300SOL     OW  898   0.008   0.981   1.165  0.1508  0.4668 -0.0474
  300SOL    HW1  899   0.012   0.886   1.153 -1.1003  0.2492  1.1519
  300SOL    HW2  900   0.033   1.017   1.080 -1.5422 -0.9431 -1.1687
  301SOL     OW  901   0.125   0.387   0.936  0.1766 -0.1551  0.0223
  301SOL    HW1  902   0.037   0.363   0.965  0.5442 -1.3601  0.1455
  301SOL    HW2  903   0.110   0.457   0.872 -0.9505 -1.0936 -0.7877
  302SOL     OW  904   0.311   1.259   1.262  0.1986  0.8961  0.0164
  302SOL    HW1  905   0.278   1.339   1.302 -0.2486 -0.1547  1.8110
  302SOL    HW2  906   0.348   1.287   1.178 -1.6162  2.7033 -0.2293
  303SOL     OW  907   1.458   1.795   1.185 -0.0039  0.5946 -0.1263
  303SOL    HW1  908   1.391   1.840   1.235  0.5863  1.2022  0.1312
  303SOL    HW2  909   1.423   1.790   1.096 -0.9801 -0.3426  0.3183
  304SOL     OW  910   2.028   0.199   2.033  0.2899  0.2260  0.2218
  304SOL    HW1  911   1.976   0.271   2.068  1.3785  1.4265 -0.6376
  304SOL    HW2  912   2.074   0.163   2.109  1.7531  2.0932  0.2406
  305SOL     OW  913   0.218   0.552   1.369 -0.8753  0.1647  0.5191
  305SOL    HW1  914   0.249   0.507   1.448  0.5380  0.4590  0.1382
  305SOL    HW2  915   0.241   0.643   1.382  0.6519 -0.0066 -0.8441
  306SOL     OW  916   1.426   0.175   2.355 -0.0149  0.4114 -0.0985
  306SOL    HW1  917   1.468   0.119   2.420  0.7346  1.3156  0.2003
  306SOL    HW2  918   1.401   0.116   2.285 -0.2953 -0.4858  0.7469
  307SOL     OW  919   2.164   0.131   2.282  0.1659  0.0054 -0.0988
  307SOL    HW1  920   2.180   0.155   2.374 -0.4468  0.7101 -0.1670
  307SOL    HW2  921   2.178   0.037   2.279  0.8767  0.0849  0.5688
  308SOL     OW  922   2.077   0.739   2.331  0.3208  0.7507  0.3623
  308SOL    HW1  923   2.071   0.828   2.297 -0.5277 -0.1208 -1.8501
  308SOL    HW2  924   2.046   0.684   2.259  0.8801 -1.3339  1.6886
  309SOL     OW  925   0.992   1.793   2.250  0.0238  0.1375  0.3590
  309SOL    HW1  926   0.974   1.763   2.339 -0.8783 -0.9156 -0.1658
  309SOL    HW2  927   1.085   1.773   2.237  0.1639  0.3032  1.0588
  310SOL     OW  928   1.987   0.622   2.110  0.0268 -0.0249 -0.3279
  310SOL    HW1  929   1.950   0.539   2.139 -0.4573  0.1501 -0.4340
  310SOL    HW2  930   2.056   0.598   2.048 -0.5101 -0.3227 -0.8062
  311SOL     OW  931   0.812   1.503   2.149  0.3717  0.0205 -0.0400
  311SOL    HW1  932   0.814   1.497   2.245 -1.6558  1.2017  0.0935
  311SOL    HW2  933   0.904   1.496   2.123  0.9872  0.1318  2.0145
  312SOL     OW  934   1.570   1.051   0.658  0.4418 -0.1187  0.0880
  312SOL    HW1  935   1.608   0.965   0.676 -1.1241 -1.2805 -1.8931
  312SOL    HW2  936   1.575   1.060   0.563 -0.1699  1.6338  0.1992
  313SOL     OW  937   1.069   1.075   0.355  0.4379 -0.3563 -0.3435
  313SOL    HW1  938   1.077   1.048   0.264  1.4484 -4.4035  0.8511
  313SOL    HW2  939   1.158   1.072   0.389 -0.0867 -0.0587  1.1124
  314SOL     OW  940   1.654   1.409   0.945 -0.0132  0.4741 -0.0399
  314SOL    HW1  941   1.694   1.449   1.022 -1.0016 -0.2913  0.8885
  314SOL    HW2  942   1.560   1.419   0.959 -0.2651 -1.7849  0.0240
  315SOL     OW  943   2.058   1.620   2.311  0.5959  0.2199 -0.1265
  315SOL    HW1  944   1.963   1.626   2.322  0.5238  0.2705 -0.7886
  315SOL    HW2  945   2.094   1.675   2.380  0.1306  0.6712 -0.2469
  316SOL     OW  946   2.075   0.693   0.205  0.3918  0.2915  0.4114
  316SOL    HW1  947   2.105   0.781   0.228 -2.1523  2.0149 -2.5512
  316SOL    HW2  948   2.104   0.680   0.115  0.1044 -1.6261  0.5693
  317SOL     OW  949   0.232   0.297   1.236 -0.2515  0.3913 -0.6177
  317SOL    HW1  950   0.198   0.372   1.283  0.3245  0.6181 -0.5533
  317SOL    HW2  951   0.155   0.245   1.214 -0.5286  0.2981  0.5450
  318SOL     OW  952   1.840   0.562   1.735  0.4285  0.4396  0.3502
  318SOL    HW1  953   1.924   0.607   1.731  0.9044 -0.4914 -0.3824
  318SOL    HW2  954   1.863   0.470   1.749 -0.3462 -0.2321 -2.4976
  319SOL     OW  955   1.883   1.954   0.251 -0.4857 -0.2963  0.2001
  319SOL    HW1  956   1.849   1.978   0.337  2.5031  3.0293  0.5609
  319SOL    HW2  957   1.858   2.027   0.194  0.0425 -1.1031 -1.0961
  320SOL     OW  958   1.415   0.639   0.381  0.0178  0.0489 -0.7984
  320SOL    HW1  959   1.449   0.571   0.438  0.4285 -0.6281 -1.8397
  320SOL    HW2  960   1.483   0.653   0.316  0.2579  1.9820 -0.1876
  321SOL     OW  961   0.827   1.409   1.560 -0.2454  0.4533 -0.1674
  321SOL    HW1  962   0.761   1.477   1.573 -3.1052 -2.7009  2.6426
  321SOL    HW2  963   0.787   1.347   1.500  1.4629  0.0641 -0.9501
  322SOL     OW  964   0.268   1.547   0.027  0.8305  0.0374 -0.2532
  322SOL    HW1  965   0.239   1.458   0.049  1.2328  0.2142  1.0756
  322SOL    HW2  966   0.361   1.548   0.051  1.0895  0.4931 -1.2703
  323SOL     OW  967   2.378   1.553   0.194 -0.6228  0.0492 -0.0171
  323SOL    HW1  968   2.401   1.618   0.128  0.9288 -1.4433 -0.9687
  323SOL    HW2  969   2.354   1.605   0.271  1.3854  1.7433 -0.4966
  324SOL     OW  970   1.144   2.205   1.376  0.3317 -0.3142 -0.0400
  324SOL    HW1  971   1.193   2.287   1.363  1.4250 -0.6111  1.9067
  324SOL    HW2  972   1.054   2.226   1.352  1.0984  0.7346 -2.0512
  325SOL     OW  973   1.859   2.355   1.404  0.5217 -0.3381  0.2396
  325SOL    HW1  974   1.803   2.278   1.395 -2.0694  1.3965  0.9119
  325SOL    HW2  975   1.905   2.341   1.487 -1.6239 -0.1756  1.5128
  326SOL     OW  976   2.373   1.769   1.243  0.1154  0.8193 -0.1317
  326SOL    HW1  977   2.387   1.675   1.231 -0.1378  0.8334 -0.5152
  326SOL    HW2  978   2.407   1.786   1.331 -0.1731  0.3033  0.0834
  327SOL     OW  979   1.673   2.063   0.402 -0.6399 -0.2716  0.1890
  327SOL    HW1  980   1.737   2.064   0.473 -1.0402 -0.5654  0.5561
  327SOL    HW2  981   1.630   2.149   0.407 -0.4160 -0.1501  0.0649
  328SOL     OW  982   2.066   1.535   2.047 -0.2523  0.3311 -0.0538
  328SOL    HW1  983   2.064   1.555   2.140 -0.2660  0.6255 -0.1156
  328SOL    HW2  984   1.987   1.484   2.031  0.3728 -0.7783  0.3307
  329SOL     OW  985   1.399   0.308   0.163  0.3839  0.5552  0.0306
  329SOL    HW1  986   1.421   0.400   0.146 -1.2332  0.8818 -0.4014
  329SOL    HW2  987   1.378   0.272   0.077 -1.0224  0.3444  0.4610
  330SOL     OW  988   0.638   2.310   1.049  0.1528  0.2486 -0.1176
  330SOL    HW1  989   0.569   2.244   1.042  0.7094 -0.2412 -1.0296
  330SOL    HW2  990   0.718   2.264   1.024  0.5036  1.3301 -1.0261
  331SOL     OW  991   2.074   0.847   1.184  0.3820  0.3144 -0.6029
  331SOL    HW1  992   2.150   0.856   1.125 -0.1539  0.0927 -1.3384
  331SOL    HW2  993   2.001   0.885   1.134 -0.2370 -0.6179 -0.4053
  332SOL     OW  994   1.074   0.793   0.450  0.0829 -0.2028  0.0843
  332SOL    HW1  995   1.013   0.865   0.462  0.2870 -0.1602  0.8446
  332SOL    HW2  996   1.034   0.739   0.382 -0.6431 -0.0060  0.3584
  333SOL     OW  997   0.319   1.651   1.139  0.1127 -0.0399 -0.2317
  333SOL    HW1  998   0.280   1.612   1.216 -1.6843 -1.9250 -2.0432
  333SOL    HW2  999   0.297   1.744   1.145 -1.5161 -0.4700  0.6434
  334SOL     OW 1000   0.655   1.631   1.600 -0.3096  0.3624 -0.1301
  334SOL    HW1 1001   0.580   1.672   1.556 -0.9965 -0.1065  0.5880
  334SOL    HW2 1002   0.668   1.684   1.678 -0.2110  0.1405  0.0028
  335SOL     OW 1003   0.269   2.150   1.546  0.4329 -0.3356  0.2166
  335SOL    HW1 1004   0.274   2.055   1.551  0.3871 -0.3189  0.5757
  335SOL    HW2 1005   0.314   2.181   1.624  1.1610 -0.0442 -0.3100
  336SOL     OW 1006   1.231   0.282   0.762  0.4123 -0.2626  0.0595
  336SOL    HW1 1007   1.261   0.254   0.675 -1.9532 -1.5325 -0.3797
  336SOL    HW2 1008   1.275   0.223   0.823  2.6623  1.1048 -0.1841
  337SOL     OW 1009   0.951   0.916   1.010  0.3796  0.0616  0.3346
  337SOL    HW1 1010   0.979   1.007   0.999 -2.2654  0.7528 -0.9441
  337SOL    HW2 1011   0.994   0.868   0.940 -0.0190  0.7385 -0.3713
  338SOL     OW 1012   0.374   2.244   2.270  0.5249 -0.4508  0.2492
  338SOL    HW1 1013   0.331   2.330   2.271  1.1933 -0.1135  0.4397
  338SOL    HW2 1014   0.468   2.264   2.266  0.6475 -1.1843 -0.9665
  339SOL     OW 1015   1.882   2.047   0.591  0.0199 -0.1012 -0.6846
  339SOL    HW1 1016   1.963   1.995   0.586  0.7702  0.6435  2.8151
  339SOL    HW2 1017   1.912   2.137   0.582 -0.7848  0.0283 -2.2091
  340SOL     OW 1018   0.562   1.143   1.945 -1.0371  0.6875  0.5887
  340SOL    HW1 1019   0.535   1.135   2.037 -2.3442  3.2888  0.4746
  340SOL    HW2 1020   0.600   1.231   1.939  1.8210 -0.5824 -0.7156
  341SOL     OW 1021   0.807   2.192   2.104 -0.5320  0.1094 -0.2774
  341SOL    HW1 1022   0.899   2.200   2.130  0.1058  2.2981 -2.9681
  341SOL    HW2 1023   0.784   2.101   2.124  1.2987  0.3182  3.1604
  342SOL     OW 1024   0.917   0.311   1.989  0.6352  0.0329 -0.4090
  342SOL    HW1 1025   0.854   0.383   1.991 -0.1692 -0.6194 -1.9056
  342SOL    HW2 1026   0.873   0.240   2.036 -0.0452 -0.6428 -2.0311
  343SOL     OW 1027   0.954   0.824   2.350  0.6208 -0.3825 -0.0065
  343SOL    HW1 1028   0.968   0.865   2.265 -0.0770  3.4416  1.6004
  343SOL    HW2 1029   0.877   0.769   2.338 -0.4134  1.3191 -1.5021
  344SOL     OW 1030   1.130   0.672   0.078 -0.7743 -0.0700 -0.4512
  344SOL    HW1 1031   1.080   0.646   0.155 -1.7711 -0.6623 -1.2886
  344SOL    HW2 1032   1.070   0.725   0.027 -0.7363 -1.1994 -1.7105
  345SOL     OW 1033   0.793   0.984   1.669  0.5149 -0.5681 -0.0616
  345SOL    HW1 1034   0.717   0.934   1.702  0.7253  0.3239  1.8112
  345SOL    HW2 1035   0.868   0.944   1.712  0.7585  0.8896  0.8591
  346SOL     OW 1036   1.963   2.374   1.760 -0.0627 -0.0698 -0.2193
  346SOL    HW1 1037   1.984   2.300   1.703  0.3420 -0.8465  0.9256
  346SOL    HW2 1038   1.887   2.344   1.809  1.2649 -0.4771  1.6226
  347SOL     OW 1039   1.193   1.854   0.470  0.8054 -0.0062 -0.3194
  347SOL    HW1 1040   1.105   1.864   0.432  0.5058  0.7219  0.5316
  347SOL    HW2 1041   1.252   1.890   0.404  0.2001  2.1977  0.2829
  348SOL     OW 1042   1.138   0.392   0.494  0.3192  0.3977 -0.3371
  348SOL    HW1 1043   1.063   0.375   0.551  1.1637  1.0252  0.9742
  348SOL    HW2 1044   1.145   0.488   0.492  1.1118  0.3409 -0.4149
  349SOL     OW 1045   0.337   0.400   1.582  0.2577 -0.1375  0.3514
  349SOL    HW1 1046   0.318   0.309   1.605 -3.0163 -0.3345 -2.8038
  349SOL    HW2 1047   0.404   0.394   1.515 -1.6288 -0.3836 -1.5425
  350SOL     OW 1048   0.030   1.594   1.643 -0.0983  1.2559 -0.4283
  350SOL    HW1 1049  -0.031   1.581   1.569 -0.2398  0.3508 -0.1539
  350SOL    HW2 1050  -0.024   1.580   1.721  1.1768 -2.8284 -0.2094
  351SOL     OW 1051   1.246   0.629   2.033  0.2294  0.1535  0.2255
  351SOL    HW1 1052   1.309   0.693   2.066 -0.6061 -0.4077  3.0416
  351SOL    HW2 1053   1.160   0.671   2.043 -0.0259  0.2714 -2.0448
  352SOL     OW 1054   2.068   1.783   0.127  0.4527 -0.5456  0.4040
  352SOL    HW1 1055   1.993   1.839   0.146 -0.0977 -0.7529 -1.0891
  352SOL    HW2 1056   2.053   1.704   0.179  0.0950 -0.2288  0.7838
  353SOL     OW 1057   2.402   2.260   2.094 -0.0210 -0.2831 -0.6821
  353SOL    HW1 1058   2.345   2.291   2.024 -0.4871  1.1336  0.3041
  353SOL    HW2 1059   2.362   2.293   2.174  0.6703 -1.6242  0.2347
  354SOL     OW 1060   0.223   0.453   0.493  0.0933  0.6287 -0.1733
  354SOL    HW1 1061   0.201   0.361   0.506  1.1908  0.3215 -0.4507
  354SOL    HW2 1062   0.141   0.500   0.511 -1.2318 -0.5938 -2.7204
  355SOL     OW 1063   0.198   1.890   0.195 -0.4430 -0.6233  0.2148
  355SOL    HW1 1064   0.159   1.844   0.121 -1.0713 -0.5486  0.4992
  355SOL    HW2 1065   0.259   1.952   0.154 -1.5407  0.1411 -0.3000
  356SOL     OW 1066   1.176   1.359   0.179  0.6056 -0.2613 -0.0202
  356SOL    HW1 1067   1.246   1.312   0.135 -0.4675 -4.2600  2.3162
  356SOL    HW2 1068   1.196   1.351   0.272 -0.5321  2.5673  0.5278
  357SOL     OW 1069   1.748   0.249   0.996  0.1431 -0.3094  0.3078
  357SOL    HW1 1070   1.780   0.290   1.076 -0.1224  0.8431 -0.1690
  357SOL    HW2 1071   1.668   0.297   0.975 -0.0684 -0.9481 -0.3698
  358SOL     OW 1072   2.016   1.064   0.683  0.7010 -0.2202 -0.1531
  358SOL    HW1 1073   1.959   1.051   0.606  0.7540 -0.9959 -0.0695
  358SOL    HW2 1074   1.973   1.134   0.733 -0.1498 -0.7412 -0.1315
  359SOL     OW 1075   1.454   2.286   1.351  0.0458  0.0204  0.3688
  359SOL    HW1 1076   1.392   2.357   1.337  1.0456  1.0260  1.0216
  359SOL    HW2 1077   1.475   2.255   1.262 -0.6919  0.2522  0.1037
  360SOL     OW 1078   1.165   1.619   1.124 -0.6690 -0.3035 -0.0549
  360SOL    HW1 1079   1.175   1.625   1.219 -0.1130  0.9760 -0.1940
  360SOL    HW2 1080   1.120   1.699   1.099 -0.2885 -0.3609 -0.9509
  361SOL     OW 1081   1.250   1.654   1.912  0.3144 -0.4767  0.2457
  361SOL    HW1 1082   1.286   1.653   2.001 -1.2078  0.5301  0.8977
  361SOL    HW2 1083   1.180   1.589   1.913  0.2820 -0.4531 -0.2166
  362SOL     OW 1084   1.461   1.631   0.008 -0.4444  0.0651 -0.8357
  362SOL    HW1 1085   1.503   1.636   0.094 -0.5654 -0.8201 -0.7241
  362SOL    HW2 1086   1.369   1.611   0.026 -0.6101  0.5321 -1.1454
  363SOL     OW 1087   1.133   0.487   0.907 -0.2831  0.2383 -0.4565
  363SOL    HW1 1088   1.086   0.437   0.974  0.9035  0.4182  0.5114
  363SOL    HW2 1089   1.170   0.420   0.850 -0.9954  0.0779 -0.7423
  364SOL     OW 1090   1.091   2.070   0.938  0.6676 -0.4842 -0.2491
  364SOL    HW1 1091   1.113   2.062   0.845 -1.4761  1.2020 -0.9644
  364SOL    HW2 1092   1.046   1.988   0.959 -1.9926  0.5078 -1.7175
  365SOL     OW 1093   0.800   1.760   0.085  0.0400 -0.1697  0.1838
  365SOL    HW1 1094   0.805   1.664   0.076 -1.3082 -0.1787 -0.4760
  365SOL    HW2 1095   0.707   1.779   0.091  0.1388  1.3866 -2.7677
  366SOL     OW 1096   2.112   1.310   1.006  0.2908  0.0859 -0.2664
  366SOL    HW1 1097   2.107   1.369   1.081  2.0924  1.0347 -0.8558
  366SOL    HW2 1098   2.087   1.224   1.041 -0.8246  0.8994  0.9563
  367SOL     OW 1099   0.256   2.124   0.430 -0.4635 -0.0231 -0.2649
  367SOL    HW1 1100   0.186   2.178   0.393 -0.6474  0.7537  1.1998
  367SOL    HW2 1101   0.334   2.152   0.383 -1.3270 -1.9829 -3.0343
  368SOL     OW 1102   0.253   1.837   1.585 -0.1620 -0.5163  0.1057
  368SOL    HW1 1103   0.327   1.780   1.605  0.9359  0.9575  0.2950
  368SOL    HW2 1104   0.199   1.836   1.664  1.0292  0.4852  0.9441
  369SOL     OW 1105   0.076   2.241   0.271 -0.0018  0.7378  0.1411
  369SOL    HW1 1106   0.030   2.317   0.306 -1.8664  0.1975 -1.1176
  369SOL    HW2 1107   0.019   2.167   0.291  0.1010  0.1124 -1.8276
  370SOL     OW 1108   0.777   1.191   1.039 -0.4372 -0.0761  0.2180
  370SOL    HW1 1109   0.873   1.190   1.038 -0.4267  1.2311 -0.7961
  370SOL    HW2 1110   0.753   1.116   1.094  1.1668 -0.1172  0.8856
  371SOL     OW 1111   1.800   0.396   2.092  0.1889  0.2788 -0.4265
  371SOL    HW1 1112   1.718   0.392   2.143  0.2426  0.1289 -0.3528
  371SOL    HW2 1113   1.772   0.383   2.001  0.1305  0.2371 -0.4028
  372SOL     OW 1114   1.290   1.930   1.858 -0.0121  0.2527  0.9672
  372SOL    HW1 1115   1.318   1.949   1.768 -2.0106 -0.1734  0.2437
  372SOL    HW2 1116   1.295   1.835   1.866 -2.9673  0.0100  0.2376
  373SOL     OW 1117   1.076   1.401   2.092  0.5975  0.3276  0.2560
  373SOL    HW1 1118   1.162   1.416   2.129  0.8555  0.5298 -0.4212
  373SOL    HW2 1119   1.086   1.323   2.037  0.5983  0.9375 -0.6238
  374SOL     OW 1120   1.616   1.805   1.596  0.3987  0.0933  0.1907
  374SOL    HW1 1121   1.663   1.800   1.679 -1.3803  0.2066  1.2085
  374SOL    HW2 1122   1.629   1.719   1.556  1.9233  0.3000  0.1989
  375SOL     OW 1123   1.377   1.297   2.105  0.7302 -0.0663 -0.3037
  375SOL    HW1 1124   1.404   1.342   2.025  1.4669 -0.4248 -0.2671
  375SOL    HW2 1125   1.414   1.209   2.096  1.3273  0.0724  0.6867
  376SOL     OW 1126   1.805   2.080   1.960  0.0586  0.2801 -0.0468
  376SOL    HW1 1127   1.891   2.074   2.002  0.5476  0.6062 -1.0044
  376SOL    HW2 1128   1.743   2.062   2.031  0.9653 -1.4751  0.3303
  377SOL     OW 1129   1.693   1.929   1.164 -0.4170  0.0897 -0.3488
  377SOL    HW1 1130   1.662   2.008   1.119 -2.1157  1.0321  2.3143
  377SOL    HW2 1131   1.615   1.894   1.206  0.9327 -1.2220  1.1241
  378SOL     OW 1132   1.596   1.118   0.403  0.3014  0.4291 -0.7170
  378SOL    HW1 1133   1.545   1.054   0.354 -1.1560  1.2151 -0.2675
  378SOL    HW2 1134   1.687   1.092   0.390 -0.3367 -3.2054  1.4791
  379SOL     OW 1135   1.248   0.819   1.511 -0.5846  0.1276  0.3509
  379SOL    HW1 1136   1.248   0.738   1.459 -0.3240  0.4349 -0.1312
  379SOL    HW2 1137   1.324   0.810   1.569  1.3419  1.4335 -1.9242
  380SOL     OW 1138   1.189   2.404   2.119 -0.0735  0.1527 -0.0993
  380SOL    HW1 1139   1.165   2.474   2.059  0.8392 -0.4057 -1.1429
  380SOL    HW2 1140   1.258   2.356   2.073  0.4916 -0.4140  1.3072
  381SOL     OW 1141   0.355   0.239   0.965  0.0319  0.4090 -0.2387
  381SOL    HW1 1142   0.353   0.272   1.055 -1.1785 -0.6891  0.1559
  381SOL    HW2 1143   0.283   0.285   0.921  0.7232  1.0660 -0.7089
  382SOL     OW 1144   1.801   1.292   1.216  0.3185  0.1483 -0.1177
  382SOL    HW1 1145   1.747   1.241   1.277  1.0635  0.4201  0.7962
  382SOL    HW2 1146   1.767   1.382   1.224 -1.0864 -0.2145 -1.8312
  383SOL     OW 1147   0.383   0.283   2.005 -0.5285  0.0710  0.2303
  383SOL    HW1 1148   0.395   0.370   2.043 -0.2524 -0.5720  1.6782
  383SOL    HW2 1149   0.471   0.245   2.004 -0.5605  0.0079 -0.9182
  384SOL     OW 1150   0.613   0.323   0.690 -0.4842 -0.1353  0.2939
  384SOL    HW1 1151   0.537   0.267   0.676  0.7452 -1.4331 -1.3705
  384SOL    HW2 1152   0.672   0.303   0.617  0.0436  3.2572 -0.3113
  385SOL     OW 1153   1.469   0.137   0.644 -0.1617  0.0276  0.3057
  385SOL    HW1 1154   1.556   0.128   0.607 -0.2799 -0.0272  0.0375
  385SOL    HW2 1155   1.464   0.070   0.711 -0.1502 -0.2513  0.0278
  386SOL     OW 1156   2.396   0.127   1.864  0.1612  0.2726  0.4844
  386SOL    HW1 1157   2.484   0.092   1.880  0.3739  1.6445  2.3849
  386SOL    HW2 1158   2.405   0.221   1.873 -0.6152  0.8784 -3.7094
  387SOL     OW 1159   0.382   1.133   1.713 -0.1154  0.4702 -0.0974
  387SOL    HW1 1160   0.383   1.224   1.685  0.2865  0.0690 -1.4379
  387SOL    HW2 1161   0.433   1.132   1.795 -1.0217  1.6051  0.4906
  388SOL     OW 1162   0.644   2.136   1.844  0.1276  0.3294 -0.1191
  388SOL    HW1 1163   0.650   2.143   1.940 -1.1617 -1.1531  0.0852
  388SOL    HW2 1164   0.733   2.151   1.814  0.6910  0.0782  1.3615
  389SOL     OW 1165   2.188   0.938   0.266  0.6994  0.4648 -0.0077
  389SOL    HW1 1166   2.222   1.005   0.326  1.7939 -2.0650  2.2976
  389SOL    HW2 1167   2.265   0.910   0.216  0.6015 -0.3203  0.2780
  390SOL     OW 1168   1.877   1.760   1.284 -0.0532  0.0890  0.0280
  390SOL    HW1 1169   1.957   1.797   1.321  0.6731 -0.9752 -0.4181
  390SOL    HW2 1170   1.826   1.835   1.254 -0.2336  0.8986  2.3350
  391SOL     OW 1171   0.778   1.936   2.197 -0.1006 -0.0263 -0.5217
  391SOL    HW1 1172   0.712   1.868   2.207 -0.3037  0.2391 -0.0254
  391SOL    HW2 1173   0.861   1.893   2.221 -0.4413  0.3183  1.4215
  392SOL     OW 1174   1.255   1.755   2.208  0.7840 -0.2305  0.5216
  392SOL    HW1 1175   1.288   1.738   2.296  1.9603  1.4186  0.4308
  392SOL    HW2 1176   1.321   1.812   2.168  0.0741 -0.6434 -1.2936
  393SOL     OW 1177   2.235   1.320   1.734 -0.6757  0.5395 -0.0147
  393SOL    HW1 1178   2.246   1.375   1.812  0.4803 -1.0375  0.9655
  393SOL    HW2 1179   2.317   1.328   1.687 -0.2975 -0.7780  0.4191
  394SOL     OW 1180   1.309   1.327   1.566 -0.1563  0.3698  0.2166
  394SOL    HW1 1181   1.230   1.377   1.548  0.3008  0.9817 -0.0898
  394SOL    HW2 1182   1.290   1.239   1.533  0.3541  1.2503 -2.5368
  395SOL     OW 1183   0.837   0.378   0.001 -0.2535 -0.7662  0.3927
  395SOL    HW1 1184   0.837   0.436  -0.075 -1.5772 -0.9280  0.2698
  395SOL    HW2 1185   0.746   0.353   0.013 -0.2947  0.4322  2.9463
  396SOL     OW 1186   1.795   1.359   2.258 -0.3387  0.8025  0.0410
  396SOL    HW1 1187   1.701   1.368   2.245 -0.5084 -0.6691  0.1201
  396SOL    HW2 1188   1.806   1.349   2.353 -0.4549 -2.3081 -0.2053
  397SOL     OW 1189   0.893   1.219   1.771  0.2759  0.1828 -0.6471
  397SOL    HW1 1190   0.845   1.141   1.745 -0.7628  0.5159  0.2507
  397SOL    HW2 1191   0.884   1.279   1.696 -1.4204  0.5590 -0.1519
  398SOL     OW 1192   1.675   2.317   1.835 -0.5721  0.4950 -0.0328
  398SOL    HW1 1193   1.724   2.240   1.863  0.6895  0.7023 -1.5902
  398SOL    HW2 1194   1.606   2.328   1.902  0.2924 -0.9470  1.1199
  399SOL     OW 1195   1.838   1.378   0.130 -0.2650  0.3065 -0.1061
  399SOL    HW1 1196   1.907   1.443   0.118  0.6389 -0.0815  2.6649
  399SOL    HW2 1197   1.800   1.399   0.215 -1.7869 -1.1668 -0.3947
  400SOL     OW 1198   2.312   1.629   0.810  0.3562  0.0373  0.0723
  400SOL    HW1 1199   2.334   1.631   0.903 -2.0738 -1.3575  0.7156
  400SOL    HW2 1200   2.293   1.537   0.792 -0.4958  0.4990 -1.4709
  401SOL     OW 1201   2.210   0.177   0.134 -0.4337 -0.1787 -0.0028
  401SOL    HW1 1202   2.226   0.267   0.161 -0.8629  0.0962 -0.6786
  401SOL    HW2 1203   2.181   0.133   0.215 -1.7535  0.6571 -0.0124
  402SOL     OW 1204   0.434   0.784   2.393 -0.1342  0.3206  0.3356
  402SOL    HW1 1205   0.369   0.846   2.425  0.6640  1.3407  0.0334
  402SOL    HW2 1206   0.384   0.711   2.356 -1.0839  0.8590  0.5709
  403SOL     OW 1207   1.303   1.092   1.043  0.1162  0.2372  0.3396
  403SOL    HW1 1208   1.219   1.081   0.999 -0.2954  0.3845  1.0925
  403SOL    HW2 1209   1.318   1.187   1.044 -0.0439  0.2575  0.8360
  404SOL     OW 1210   0.541   1.495   2.413  0.1866 -0.3176 -0.3494
  404SOL    HW1 1211   0.556   1.573   2.360  1.7719 -0.1702  0.2719
  404SOL    HW2 1212   0.530   1.425   2.350  0.8736  0.0600 -0.8936
  405SOL     OW 1213   0.048   0.888   0.620 -0.0222 -0.3114  0.2239
  405SOL    HW1 1214   0.115   0.833   0.660 -0.1262 -0.6341 -0.0477
  405SOL    HW2 1215  -0.014   0.827   0.582  0.0138 -0.0095 -0.3317
  406SOL     OW 1216   0.415   0.063   0.633 -0.2496 -0.4431  0.5138
  406SOL    HW1 1217   0.431   0.080   0.726 -1.1642 -1.3671  0.8437
  406SOL    HW2 1218   0.426  -0.031   0.624  0.4517 -0.2817 -0.4517
  407SOL     OW 1219   2.251   1.336   0.769  0.2798 -0.3294  0.0162
  407SOL    HW1 1220   2.241   1.302   0.858 -0.9437 -0.6547 -0.2324
  407SOL    HW2 1221   2.166   1.375   0.749  0.4345 -0.5763 -1.1451
  408SOL     OW 1222   2.397   0.439   1.823  0.3179  0.8088  0.6861
  408SOL    HW1 1223   2.483   0.480   1.831 -0.0096  1.4947  0.7520
  408SOL    HW2 1224   2.356   0.483   1.748 -0.2985  1.0845  1.1778
  409SOL     OW 1225   1.462   0.752   2.155  1.1770  0.0114  0.7772
  409SOL    HW1 1226   1.453   0.833   2.204  0.0424 -0.0204  0.6258
  409SOL    HW2 1227   1.554   0.749   2.130  1.3127  1.0339  1.1549
  410SOL     OW 1228   0.086   2.285   1.415  0.7459 -0.0478 -0.3135
  410SOL    HW1 1229   0.159   2.241   1.459  0.7342 -0.3729 -0.6178
  410SOL    HW2 1230   0.047   2.341   1.482  1.8405  0.8162 -0.3756
  411SOL     OW 1231   1.323   2.392   1.753  0.3297  0.5329 -0.2100
  411SOL    HW1 1232   1.305   2.485   1.743 -0.8648  0.5502  1.9464
  411SOL    HW2 1233   1.244   2.349   1.720  1.8076  0.1426 -3.4924
  412SOL     OW 1234   1.340   0.666   0.976  0.3837  0.0243 -0.7765
  412SOL    HW1 1235   1.251   0.647   0.946 -0.1794  0.5650  0.5544
  412SOL    HW2 1236   1.364   0.746   0.929 -1.7962  2.8659  2.6909
  413SOL     OW 1237   1.710   0.911   1.756  0.0791  0.0517 -0.1441
  413SOL    HW1 1238   1.653   0.912   1.679 -1.4383  0.8426  0.9572
  413SOL    HW2 1239   1.686   0.832   1.803  0.3234  0.0616 -0.0027
  414SOL     OW 1240   0.076   1.014   0.354  0.7145 -0.1044 -0.5058
  414SOL    HW1 1241   0.043   1.030   0.443  0.1690 -3.6984 -0.0166
  414SOL    HW2 1242   0.032   1.080   0.301 -3.3386 -1.4219  0.9799
  415SOL     OW 1243   0.455   0.613   1.740 -0.0687  0.4647 -0.3516
  415SOL    HW1 1244   0.444   0.525   1.704  1.9038 -0.0213  0.1514
  415SOL    HW2 1245   0.376   0.629   1.791  0.0119 -1.4450  0.4058
  416SOL     OW 1246   1.754   0.100   2.099 -0.7238  0.2632  0.0151
  416SOL    HW1 1247   1.711   0.131   2.019  0.8651  0.3055 -0.8331
  416SOL    HW2 1248   1.848   0.108   2.081 -0.3416  1.8756  2.5022
  417SOL     OW 1249   0.763   1.093   1.405  0.0989 -0.2247 -0.1887
  417SOL    HW1 1250   0.790   1.050   1.485  0.7669  1.0975  0.3192
  417SOL    HW2 1251   0.670   1.112   1.418  0.0311 -0.6588 -0.0330
  418SOL     OW 1252   0.285   2.381   0.972  0.2724 -0.4617  0.5162
  418SOL    HW1 1253   0.309   2.346   1.058  1.3512  0.7766  0.7294
  418SOL    HW2 1254   0.308   2.474   0.977  3.1238 -0.9496 -2.0819
  419SOL     OW 1255   1.754   1.469   0.404 -0.2803 -0.1784  0.3947
  419SOL    HW1 1256   1.714   1.550   0.437 -1.6996 -0.6458 -0.1280
  419SOL    HW2 1257   1.718   1.400   0.460 -1.0365 -0.7277 -0.7474
  420SOL     OW 1258   2.371   1.330   1.504 -0.1097  0.0091  0.0902
  420SOL    HW1 1259   2.314   1.332   1.427  1.3409  2.5661 -0.9788
  420SOL    HW2 1260   2.436   1.263   1.484 -0.2251  0.0822 -0.5349
  421SOL     OW 1261   0.332   0.601   0.254  0.4987 -0.1551 -0.3985
  421SOL    HW1 1262   0.309   0.519   0.297 -0.5052  0.1180 -0.4064
  421SOL    HW2 1263   0.329   0.580   0.160 -0.5779  0.1147 -0.4182
  422SOL     OW 1264   0.986   0.732   2.028 -0.1466  0.1162 -0.4911
  422SOL    HW1 1265   0.948   0.820   2.024 -0.2674  0.0024 -2.1965
  422SOL    HW2 1266   0.913   0.674   2.006  0.1701 -0.3559 -0.3102
  423SOL     OW 1267   1.313   2.094   2.056  0.1846 -0.2269 -0.0058
  423SOL    HW1 1268   1.318   2.028   1.987 -0.1860  1.2004 -1.4228
  423SOL    HW2 1269   1.361   2.055   2.130  0.7086 -1.7136 -1.1016
  424SOL     OW 1270   0.524   0.446   1.368 -0.4089 -0.1330  0.1489
  424SOL    HW1 1271   0.548   0.539   1.374  1.1299 -0.4754 -0.5288
  424SOL    HW2 1272   0.519   0.430   1.274  1.6650 -1.3159  0.2143
  425SOL     OW 1273   0.409   1.387   1.635  0.1497 -0.3838 -0.1922
  425SOL    HW1 1274   0.410   1.461   1.696 -0.6603 -0.5250 -0.0016
  425SOL    HW2 1275   0.486   1.401   1.579 -1.7879  2.3907 -2.2943
  426SOL     OW 1276   1.999   1.447   0.669  0.1153  0.1285  0.0507
  426SOL    HW1 1277   1.937   1.378   0.644  1.3818 -0.9433 -0.1948
  426SOL    HW2 1278   2.014   1.496   0.588 -0.4978  0.4638  0.1381
  427SOL     OW 1279   1.091   2.280   0.381 -0.6447 -0.1838 -0.4082
  427SOL    HW1 1280   1.183   2.293   0.358 -0.0662 -1.3974  1.1039
  427SOL    HW2 1281   1.075   2.342   0.452 -1.4067  1.0008 -1.5859
  428SOL     OW 1282   1.329   1.284   0.405  0.2918 -0.1865 -0.3831
  428SOL    HW1 1283   1.336   1.346   0.478 -0.6802  0.3748 -0.7655
  428SOL    HW2 1284   1.387   1.212   0.430  1.2386  0.7533  0.1802
  429SOL     OW 1285   2.235   1.832   1.801 -0.4402 -0.2491  0.2412
  429SOL    HW1 1286   2.330   1.827   1.795 -0.2411  1.6101  1.4578
  429SOL    HW2 1287   2.216   1.822   1.894 -1.2819  1.3567  0.2603
  430SOL     OW 1288   0.422   1.907   1.848 -0.1113 -0.3826 -0.1539
  430SOL    HW1 1289   0.337   1.929   1.811 -0.2053  0.2164  0.3907
  430SOL    HW2 1290   0.483   1.965   1.803 -0.3129  0.7846  1.0535
  431SOL     OW 1291   0.690   0.802   1.006 -0.2691 -0.3118 -0.2101
  431SOL    HW1 1292   0.686   0.736   0.937  0.1364  1.0043 -1.5179
  431SOL    HW2 1293   0.784   0.818   1.019 -0.3471 -0.3906  0.4908
  432SOL     OW 1294   0.884   0.833   1.253 -0.5908 -0.2462 -0.3801
  432SOL    HW1 1295   0.828   0.907   1.277 -0.9105 -0.7811  0.5365
  432SOL    HW2 1296   0.925   0.860   1.171 -0.8856  0.8585 -0.1773
  433SOL     OW 1297   0.756   0.251   1.294 -0.0030 -0.4373 -0.3855
  433SOL    HW1 1298   0.760   0.191   1.219  1.1798 -0.1690 -0.5487
  433SOL    HW2 1299   0.732   0.335   1.255 -0.3229 -0.5042 -0.3347
  434SOL     OW 1300   2.279   0.579   1.607 -0.0832  0.0546 -0.1861
  434SOL    HW1 1301   2.206   0.627   1.647 -0.3769 -0.9095  0.4435
  434SOL    HW2 1302   2.321   0.644   1.550 -0.7034  0.9521  0.3567
  435SOL     OW 1303   1.115   1.083   1.953  0.0436 -0.5410  0.2787
  435SOL    HW1 1304   1.173   1.078   1.877  0.9710 -0.4663  0.9758
  435SOL    HW2 1305   1.029   1.058   1.919  0.6119 -1.3261 -0.6109
  436SOL     OW 1306   0.251   1.628   0.425  0.1032 -0.7713 -0.0834
  436SOL    HW1 1307   0.162   1.658   0.406  0.2563 -0.0280  0.3518
  436SOL    HW2 1308   0.250   1.607   0.519  0.3337 -0.9440 -0.1180
  437SOL     OW 1309   1.743   1.106   1.945  0.0332  0.2272 -0.2235
  437SOL    HW1 1310   1.827   1.151   1.957 -0.2428  0.4129  0.9900
  437SOL    HW2 1311   1.761   1.044   1.874  1.3611 -0.1134  0.3801
  438SOL     OW 1312   1.409   1.965   1.570  0.7350  0.2965 -0.1830
  438SOL    HW1 1313   1.477   1.899   1.578 -0.4501 -1.0539 -1.0824
  438SOL    HW2 1314   1.380   1.961   1.479  0.0167  1.4172 -0.0251
  439SOL     OW 1315   1.723   1.009   2.274  0.2141  0.1086  0.0781
  439SOL    HW1 1316   1.741   0.936   2.215  2.5742 -0.1611  1.0565
  439SOL    HW2 1317   1.637   1.041   2.248  0.9261 -0.4035 -3.0794
  440SOL     OW 1318   2.243   0.862   1.952 -0.1909  0.5482 -0.3700
  440SOL    HW1 1319   2.328   0.823   1.968 -0.2066  0.5992 -0.1609
  440SOL    HW2 1320   2.256   0.918   1.876  0.4899  2.2359  0.9667
  441SOL     OW 1321   0.109   0.983   0.915  0.5032  0.3318 -0.2337
  441SOL    HW1 1322   0.104   0.895   0.878  1.8737  0.5516 -0.9686
  441SOL    HW2 1323   0.094   1.041   0.840 -2.8109  0.7290  0.6581
  442SOL     OW 1324   1.159   0.406   1.436 -0.0762 -0.1882  0.0451
  442SOL    HW1 1325   1.239   0.391   1.385  0.2456  1.3724  0.0740
  442SOL    HW2 1326   1.118   0.481   1.394 -0.9897 -0.3291  0.6835
  443SOL     OW 1327   1.030   1.907   1.973  0.2647 -0.2701  0.4516
  443SOL    HW1 1328   1.124   1.891   1.960 -0.1498 -1.4580 -1.2267
  443SOL    HW2 1329   1.005   1.845   2.041  1.0174  1.2032  2.1202
  444SOL     OW 1330   1.253   1.094   1.450  0.0367 -0.1841 -0.0529
  444SOL    HW1 1331   1.333   1.090   1.398 -1.4977 -1.8445 -2.3820
  444SOL    HW2 1332   1.239   1.003   1.478 -0.8679  0.1573  0.6256
  445SOL     OW 1333   2.265   1.932   1.054 -0.2624  0.2130 -0.5468
  445SOL    HW1 1334   2.333   1.989   1.089 -1.1793  1.3580 -0.5915
  445SOL    HW2 1335   2.263   1.857   1.114  0.8174  0.3143 -0.3739
  446SOL     OW 1336   2.231   1.726   1.487  0.1418  0.5545  0.3461
  446SOL    HW1 1337   2.180   1.789   1.436  0.8350 -0.3713 -1.5314
  446SOL    HW2 1338   2.170   1.654   1.504  1.0315 -1.0801 -2.8790
  447SOL     OW 1339   1.747   0.727   0.420  0.0348 -0.5372  0.1369
  447SOL    HW1 1340   1.806   0.685   0.482  0.6473 -1.6222 -1.1459
  447SOL    HW2 1341   1.787   0.813   0.404  0.4761 -0.6947  0.3889
  448SOL     OW 1342   1.462   2.084   0.095  0.3678 -0.0391 -0.4473
  448SOL    HW1 1343   1.382   2.052   0.053 -0.6496  1.1037  0.5842
  448SOL    HW2 1344   1.491   2.012   0.150 -1.5099  0.5172  1.3108
  449SOL     OW 1345   0.298   1.007   0.104  0.0080  0.0137 -0.3439
  449SOL    HW1 1346   0.239   1.033   0.175 -1.2441 -2.8742 -0.2606
  449SOL    HW2 1347   0.256   1.040   0.025 -0.7251 -0.3330 -0.1057
  450SOL     OW 1348   0.761   0.543   1.663  0.5647  0.5409  0.2567
  450SOL    HW1 1349   0.679   0.497   1.647  0.9385 -0.7199  1.8571
  450SOL    HW2 1350   0.786   0.579   1.577  0.1989 -2.1136 -0.9898
  451SOL     OW 1351   2.112   0.594   0.460 -0.2473 -0.2163  0.0345
  451SOL    HW1 1352   2.077   0.619   0.374  1.3329  2.1613  0.0136
  451SOL    HW2 1353   2.099   0.673   0.514  0.5525 -1.0195  1.4086
  452SOL     OW 1354   0.147   2.022   2.184  0.4580  0.3067 -0.1530
  452SOL    HW1 1355   0.083   2.091   2.199  0.5069  0.4734 -0.7001
  452SOL    HW2 1356   0.231   2.061   2.208  0.3719  0.1297  0.4421
  453SOL     OW 1357   0.189   2.128   0.883 -0.4221 -0.0598  0.2343
  453SOL    HW1 1358   0.249   2.202   0.879 -1.6457  1.1063  2.5248
  453SOL    HW2 1359   0.209   2.077   0.804  3.4749  0.3427  0.8403
  454SOL     OW 1360   0.213   0.897   1.715 -0.0915 -0.1015  0.3797
  454SOL    HW1 1361   0.262   0.979   1.720  0.7010 -0.6338  1.6612
  454SOL    HW2 1362   0.134   0.919   1.665  0.9012  1.0350 -0.7001
  455SOL     OW 1363   1.855   0.980   0.375 -0.0595  0.5893 -0.2013
  455SOL    HW1 1364   1.890   1.069   0.386 -0.8202  0.9589 -0.7303
  455SOL    HW2 1365   1.895   0.949   0.293 -1.5423  1.2974 -1.2079
  456SOL     OW 1366   1.076   2.174   2.184 -0.1777 -0.3488  0.4922
  456SOL    HW1 1367   1.095   2.267   2.195 -1.8227 -0.1715  2.1786
  456SOL    HW2 1368   1.136   2.145   2.115 -0.4239  2.1849 -0.8458
  457SOL     OW 1369   2.327   0.470   0.740  0.2878  0.0377 -0.1959
  457SOL    HW1 1370   2.359   0.507   0.657  0.1961  2.0973  0.6421
  457SOL    HW2 1371   2.242   0.513   0.753  0.9308  0.7992  1.6346
  458SOL     OW 1372   2.029   0.431   0.988 -0.0605 -0.1759  0.0084
  458SOL    HW1 1373   1.968   0.358   0.985  1.2810 -1.2794 -1.5071
  458SOL    HW2 1374   2.089   0.409   1.059 -0.9636  0.5585  1.0197
  459SOL     OW 1375   0.237   1.196   0.650 -0.1772  0.0255 -0.1176
  459SOL    HW1 1376   0.299   1.145   0.598  0.3707  1.4347 -0.8776
  459SOL    HW2 1377   0.289   1.268   0.685 -0.8184 -0.2205  1.3776
  460SOL     OW 1378   1.708   0.124   1.632  0.2465  0.1927 -0.2366
  460SOL    HW1 1379   1.768   0.086   1.567  1.2351 -0.9525  1.3015
  460SOL    HW2 1380   1.680   0.049   1.685  0.0176  1.2138  1.1050
  461SOL     OW 1381   1.506   1.889   0.291  0.0751  0.2540 -0.0879
  461SOL    HW1 1382   1.570   1.947   0.331  1.0199 -0.2377 -0.8651
  461SOL    HW2 1383   1.545   1.801   0.297 -0.6945 -0.1038 -0.2152
  462SOL     OW 1384   0.504   1.529   1.873  0.6028 -0.4964  0.3706
  462SOL    HW1 1385   0.547   1.601   1.827 -0.2644 -0.1835  0.0268
  462SOL    HW2 1386   0.573   1.466   1.890  0.9519 -0.5694 -1.2714
  463SOL     OW 1387   0.555   0.922   1.212 -0.7027  0.0031  0.3691
  463SOL    HW1 1388   0.628   0.889   1.159  0.5277  0.6927  1.5802
  463SOL    HW2 1389   0.507   0.979   1.152  1.3404  1.7019  0.2664
  464SOL     OW 1390   0.177   0.164   0.520  0.2842  0.0457  0.0572
  464SOL    HW1 1391   0.163   0.135   0.430 -0.3601  0.7980 -0.0949
  464SOL    HW2 1392   0.264   0.131   0.543 -0.4300 -1.9878 -0.0947
  465SOL     OW 1393   2.045   2.151   2.094  0.4371  0.0899  0.5798
  465SOL    HW1 1394   2.112   2.161   2.161  0.5895 -1.4253  0.6646
  465SOL    HW2 1395   2.081   2.195   2.017  1.7080 -1.0612  0.5106
  466SOL     OW 1396   0.939   2.053   1.742  0.2553 -0.6297  0.0070
  466SOL    HW1 1397   0.957   2.023   1.831  0.2876 -0.4560  0.0596
  466SOL    HW2 1398   1.022   2.089   1.711  0.2395 -0.6740 -0.0866
   2.41472   2.41472   2.41472
